/*--------------------------------*- C++ -*----------------------------------*\
| =========                 |                                                 |
| \\      /  F ield         | OpenFOAM: The Open Source CFD Toolbox           |
|  \\    /   O peration     | Version:  v1712                                 |
|   \\  /    A nd           | Web:      www.OpenFOAM.com                      |
|    \\/     M anipulation  |                                                 |
\*---------------------------------------------------------------------------*/
FoamFile
{
    version     2.0;
    format      ascii;
    class       volScalarField;
    location    "0.001";
    object      H;
}
// * * * * * * * * * * * * * * * * * * * * * * * * * * * * * * * * * * * * * //

dimensions      [0 0 0 0 0 0 0];


internalField   nonuniform List<scalar> 
1500
(
1.528839887e-41
1.660229929e-41
1.668540956e-41
1.670733933e-41
1.673031924e-41
1.675779573e-41
1.678736514e-41
1.682072688e-41
1.685750447e-41
1.688695756e-41
1.692844814e-41
1.695922821e-41
1.698861914e-41
1.701679175e-41
1.704432067e-41
1.70659532e-41
1.707905743e-41
1.708616348e-41
1.708647723e-41
1.707972454e-41
1.70663989e-41
1.704563661e-41
1.701300129e-41
1.695978622e-41
1.691274263e-41
1.685098791e-41
1.677300578e-41
1.665717473e-41
1.658002894e-41
1.649531299e-41
1.638025012e-41
1.627356335e-41
1.615488819e-41
1.607103534e-41
1.598873224e-41
1.591095546e-41
1.586043321e-41
1.581012553e-41
1.578022523e-41
1.576613521e-41
1.576736725e-41
1.578776415e-41
1.584706564e-41
1.591510277e-41
1.599681049e-41
1.608611507e-41
1.620020874e-41
1.634506071e-41
1.650342943e-41
1.67050586e-41
1.688044499e-41
1.704198157e-41
1.720029793e-41
1.734925571e-41
1.748542855e-41
1.760378323e-41
1.771803177e-41
1.783799788e-41
1.79345449e-41
1.800932735e-41
1.805367608e-41
1.808392008e-41
1.809757054e-41
1.809696327e-41
1.808339589e-41
1.80592412e-41
1.80264107e-41
1.798510518e-41
1.793551638e-41
1.788470622e-41
1.781309644e-41
1.775307905e-41
1.768744808e-41
1.762757681e-41
1.756440562e-41
1.750998018e-41
1.746510551e-41
1.7410016e-41
1.737036758e-41
1.733176098e-41
1.72986598e-41
1.726891048e-41
1.724256869e-41
1.722030557e-41
1.719893188e-41
1.718274966e-41
1.716850076e-41
1.715663893e-41
1.714494306e-41
1.713607513e-41
1.712874466e-41
1.712331385e-41
1.711936916e-41
1.711531439e-41
1.711247348e-41
1.711038021e-41
1.710871838e-41
1.710761768e-41
1.710646964e-41
1.710562717e-41
1.710499673e-41
1.710463737e-41
1.710441326e-41
1.710424283e-41
1.710413299e-41
1.710407925e-41
1.710406391e-41
1.710407571e-41
1.710410786e-41
1.710416185e-41
1.710422336e-41
1.710429018e-41
1.710437023e-41
1.71044745e-41
1.710455376e-41
1.710464002e-41
1.710474642e-41
1.710484552e-41
1.710496684e-41
1.71050457e-41
1.710513461e-41
1.710521553e-41
1.710529462e-41
1.710538279e-41
1.710549103e-41
1.710557913e-41
1.710566917e-41
1.710574705e-41
1.710582789e-41
1.710592345e-41
1.710600335e-41
1.710607897e-41
1.710615749e-41
1.710623359e-41
1.710630816e-41
1.710638626e-41
1.710645338e-41
1.710652598e-41
1.710659285e-41
1.710666266e-41
1.710673081e-41
1.710678522e-41
1.710685182e-41
1.710691377e-41
1.710696988e-41
1.710702777e-41
1.71070787e-41
1.710712892e-41
1.710717793e-41
1.710722957e-41
1.710727801e-41
1.710731345e-41
1.710735354e-41
1.71073944e-41
1.710742823e-41
1.710745768e-41
1.710748557e-41
1.710751108e-41
1.710753493e-41
1.710755608e-41
1.710757605e-41
1.710759343e-41
1.710760823e-41
1.710762026e-41
1.71076309e-41
1.710763871e-41
1.710764414e-41
1.710764771e-41
1.710764904e-41
1.710764847e-41
1.710764664e-41
1.710764373e-41
1.710763935e-41
1.710763409e-41
1.710762709e-41
1.710762005e-41
1.710761184e-41
1.710760287e-41
1.710759257e-41
1.710757805e-41
1.710756249e-41
1.710754778e-41
1.710752871e-41
1.710751521e-41
1.710749899e-41
1.710748435e-41
1.710746598e-41
1.710744586e-41
1.710742724e-41
1.710740879e-41
1.710739019e-41
1.710737238e-41
1.710735525e-41
1.710733629e-41
1.710731661e-41
1.710729653e-41
1.710727346e-41
1.710725176e-41
1.710722911e-41
1.710720683e-41
1.710718183e-41
1.71071527e-41
1.710711762e-41
1.710707438e-41
1.710703667e-41
1.710699765e-41
1.71069603e-41
1.710692251e-41
1.7106883e-41
1.710683966e-41
1.710678961e-41
1.710673395e-41
1.710668477e-41
1.710663159e-41
1.710657044e-41
1.71065175e-41
1.710646471e-41
1.710641324e-41
1.710636402e-41
1.710630791e-41
1.710625707e-41
1.710620233e-41
1.71061492e-41
1.710609258e-41
1.710603807e-41
1.710597683e-41
1.710589922e-41
1.710583259e-41
1.71057714e-41
1.710570744e-41
1.710564998e-41
1.710557566e-41
1.710551726e-41
1.710546063e-41
1.71054064e-41
1.710535362e-41
1.710529703e-41
1.710524596e-41
1.710518794e-41
1.71051262e-41
1.710505397e-41
1.710498335e-41
1.710491716e-41
1.710486218e-41
1.710481103e-41
1.710475607e-41
1.710469292e-41
1.710463349e-41
1.710457863e-41
1.710452788e-41
1.710447348e-41
1.710442145e-41
1.710437372e-41
1.710432099e-41
1.710426321e-41
1.710421022e-41
1.710415781e-41
1.71041012e-41
1.710405437e-41
1.710400491e-41
1.710395254e-41
1.710390064e-41
1.710385096e-41
1.710380401e-41
1.710374769e-41
1.710369617e-41
1.710364311e-41
1.710359528e-41
1.710354419e-41
1.710348491e-41
1.710342904e-41
1.710337947e-41
1.710333109e-41
1.710328151e-41
1.710323082e-41
1.710317679e-41
1.71031285e-41
1.710308309e-41
1.710303799e-41
1.710299166e-41
1.710294662e-41
1.710290254e-41
1.710285756e-41
1.710281207e-41
1.710276682e-41
1.710272362e-41
1.710268058e-41
1.710263077e-41
1.710258412e-41
1.710253839e-41
1.710249188e-41
1.710244705e-41
1.710240417e-41
1.710236076e-41
1.710231942e-41
1.710227843e-41
1.710223528e-41
1.71021939e-41
1.710215474e-41
1.710211408e-41
1.710207266e-41
1.710203231e-41
1.710199371e-41
1.710195786e-41
1.710191613e-41
1.710187897e-41
1.710184163e-41
1.710180359e-41
1.710176633e-41
1.710172747e-41
1.710168813e-41
1.710165429e-41
1.710162143e-41
1.710158913e-41
1.710155078e-41
1.710150829e-41
1.710146073e-41
1.710142651e-41
1.710139614e-41
1.710136736e-41
1.710134016e-41
1.710131519e-41
1.710128781e-41
1.710126148e-41
1.710123547e-41
1.71012063e-41
1.710117441e-41
1.710114626e-41
1.710111976e-41
1.71010934e-41
1.710106731e-41
1.710104028e-41
1.71010147e-41
1.71009888e-41
1.710096394e-41
1.710093987e-41
1.710091317e-41
1.71008827e-41
1.710085324e-41
1.710082713e-41
1.710080307e-41
1.710077864e-41
1.710075553e-41
1.710073338e-41
1.71007122e-41
1.710069162e-41
1.710066785e-41
1.710064481e-41
1.710062121e-41
1.710059565e-41
1.710056793e-41
1.710053557e-41
1.710051016e-41
1.71004873e-41
1.71004666e-41
1.710044683e-41
1.710042684e-41
1.710040511e-41
1.710038218e-41
1.710035642e-41
1.710033135e-41
1.71003084e-41
1.71002876e-41
1.710026509e-41
1.710024348e-41
1.710022362e-41
1.71002031e-41
1.710018371e-41
1.710016339e-41
1.710014444e-41
1.7100124e-41
1.710010406e-41
1.710008421e-41
1.710006419e-41
1.710004379e-41
1.710002375e-41
1.710000167e-41
1.709998108e-41
1.709995909e-41
1.709993783e-41
1.709991882e-41
1.70998985e-41
1.709987331e-41
1.709984807e-41
1.70998237e-41
1.709980221e-41
1.709978179e-41
1.709976224e-41
1.709974405e-41
1.709972631e-41
1.709970879e-41
1.709969095e-41
1.709967457e-41
1.709965819e-41
1.709964207e-41
1.709962641e-41
1.709961146e-41
1.70995963e-41
1.709958042e-41
1.709956577e-41
1.709955102e-41
1.709953589e-41
1.709952163e-41
1.709950769e-41
1.709949408e-41
1.709948034e-41
1.709946436e-41
1.709945002e-41
1.709943306e-41
1.709941982e-41
1.709940662e-41
1.709939326e-41
1.709938049e-41
1.709936833e-41
1.709935558e-41
1.709934344e-41
1.709933106e-41
1.709931873e-41
1.709930529e-41
1.709929121e-41
1.709927739e-41
1.709926229e-41
1.709924675e-41
1.709923125e-41
1.709921561e-41
1.709919968e-41
1.70991837e-41
1.709916763e-41
1.709915061e-41
1.709913448e-41
1.70991185e-41
1.709910257e-41
1.709908516e-41
1.709906852e-41
1.709905244e-41
1.7099036e-41
1.709901916e-41
1.709900206e-41
1.70989849e-41
1.709896841e-41
1.709895197e-41
1.70989361e-41
1.70989179e-41
1.709889861e-41
1.709887824e-41
1.709885492e-41
1.709883213e-41
1.709880941e-41
1.709878857e-41
1.709876884e-41
1.709875041e-41
1.709873306e-41
1.709871349e-41
1.709869348e-41
1.709867241e-41
1.70986478e-41
1.709862284e-41
1.709859897e-41
1.709857635e-41
1.709855489e-41
1.709853679e-41
1.709852054e-41
1.709850482e-41
1.709848676e-41
1.709846753e-41
1.709844661e-41
1.709842695e-41
1.709840522e-41
1.709838404e-41
1.709835986e-41
1.709833789e-41
1.70983138e-41
1.709829148e-41
1.709826975e-41
1.70982478e-41
1.709822772e-41
1.709820889e-41
1.709818875e-41
1.709816566e-41
1.709814409e-41
1.709812048e-41
1.709809873e-41
1.709807712e-41
1.709805372e-41
1.709803158e-41
1.709801031e-41
1.709798911e-41
1.709796714e-41
1.709794511e-41
1.709792264e-41
1.70979e-41
1.709787473e-41
1.709785186e-41
1.709783081e-41
1.709780983e-41
1.709778893e-41
1.709776797e-41
1.709774678e-41
1.70977242e-41
1.709770124e-41
1.709767993e-41
1.709765832e-41
1.709763638e-41
1.70976134e-41
1.709759008e-41
1.709756602e-41
1.709754162e-41
1.709751733e-41
1.709749306e-41
1.709746885e-41
1.709744278e-41
1.709741866e-41
1.709739404e-41
1.70973697e-41
1.709734459e-41
1.709731855e-41
1.709729236e-41
1.709726717e-41
1.709724057e-41
1.709721428e-41
1.709718843e-41
1.709716409e-41
1.709714125e-41
1.709711822e-41
1.709709244e-41
1.709706495e-41
1.709703647e-41
1.709700789e-41
1.70969792e-41
1.709694761e-41
1.709691861e-41
1.709689043e-41
1.709686216e-41
1.709683575e-41
1.709680905e-41
1.70967822e-41
1.709675359e-41
1.709672561e-41
1.7096697e-41
1.70966685e-41
1.709663911e-41
1.709661007e-41
1.709658073e-41
1.709655118e-41
1.709652136e-41
1.709649017e-41
1.709646037e-41
1.709642875e-41
1.70963975e-41
1.709636633e-41
1.709633519e-41
1.709630368e-41
1.709627308e-41
1.709624222e-41
1.709621167e-41
1.70961812e-41
1.709615075e-41
1.709612085e-41
1.709609155e-41
1.709606183e-41
1.709603117e-41
1.709600267e-41
1.70959734e-41
1.709594673e-41
1.709592028e-41
1.709589522e-41
1.709587261e-41
1.709585241e-41
1.709583829e-41
1.709583246e-41
1.709584101e-41
1.70958743e-41
1.709594963e-41
1.709610206e-41
1.709639008e-41
1.709685939e-41
1.709767261e-41
1.709899493e-41
1.710120114e-41
1.71048793e-41
1.711092342e-41
1.712079213e-41
1.713726982e-41
1.716555839e-41
1.72141856e-41
1.729594828e-41
1.744215208e-41
1.769666381e-41
1.81550506e-41
1.88645566e-41
2.005961522e-41
2.208006838e-41
2.555985308e-41
3.142895558e-41
4.176342338e-41
5.936873668e-41
8.917506174e-41
1.408848948e-40
2.310198441e-40
3.922421314e-40
6.641691506e-40
1.12816581e-39
1.912661383e-39
3.235714049e-39
5.505973852e-39
9.45812722e-39
1.600204517e-38
2.731005666e-38
4.645491163e-38
7.902616416e-38
1.351434748e-37
2.247143737e-37
3.709967886e-37
6.102541706e-37
1.018343529e-36
1.708826636e-36
2.899732234e-36
4.854575662e-36
7.894345847e-36
1.290168763e-35
2.215736418e-35
3.682664468e-35
6.157847929e-35
1.042647951e-34
1.831012387e-34
3.205774043e-34
5.589721884e-34
9.455496869e-34
1.599059364e-33
2.68461773e-33
4.465126544e-33
7.744368599e-33
1.360619079e-32
2.396698013e-32
4.225248453e-32
7.45537952e-32
1.316859751e-31
2.328775805e-31
4.123803581e-31
7.313271914e-31
1.29905846e-30
2.311584065e-30
4.121142232e-30
7.362360192e-30
1.318177102e-29
2.365664195e-29
4.256166361e-29
7.677685934e-29
1.388816414e-28
2.519501453e-28
4.584470503e-28
8.367902448e-28
1.532284081e-27
2.814953616e-27
5.18708724e-27
9.581689549e-27
1.77411613e-26
3.293679845e-26
6.127948468e-26
1.141928684e-25
2.130040864e-25
3.980312518e-25
7.458078903e-25
1.399755751e-24
2.628900956e-24
4.941219245e-24
9.298337438e-24
1.751810666e-23
3.303442541e-23
6.230339306e-23
1.175098926e-22
2.218570073e-22
4.191082892e-22
7.903178504e-22
1.492570001e-21
2.817294508e-21
5.308078059e-21
9.993968239e-21
1.88077371e-20
3.53310055e-20
6.623121951e-20
1.236781854e-19
2.304264869e-19
4.28221578e-19
7.932639952e-19
1.466916103e-18
2.705601002e-18
4.971734201e-18
9.14707318e-18
1.691898512e-17
3.093671418e-17
5.628895473e-17
1.040577581e-16
1.935854313e-16
3.598587388e-16
6.679500947e-16
1.238237333e-15
2.293176156e-15
4.243853816e-15
7.850325453e-15
1.451917788e-14
2.68570523e-14
4.970316735e-14
9.206185432e-14
1.707354782e-13
3.171952811e-13
5.906975301e-13
1.103688061e-12
2.072137016e-12
3.918733918e-12
7.494805154e-12
1.45875612e-11
2.916194175e-11
6.059467164e-11
1.324401631e-10
3.084277144e-10
7.69312943e-10
1.981121017e-09
5.467113608e-09
1.596989869e-08
4.731193322e-08
1.391717941e-07
3.989545694e-07
1.097644426e-06
2.766302563e-06
6.352924618e-06
1.364778442e-05
2.683328935e-05
4.661363421e-05
7.618732358e-05
0.0001135862783
0.000161593367
0.000218681621
0.0002837188338
0.0003558830367
0.0004343841875
0.0005184337982
0.0006071868649
0.0006996832082
0.0007948037196
0.0008912528454
0.0009875766211
0.001082240048
0.001173813824
0.001259096224
0.001338899638
0.001412550768
0.001479690703
0.001539279439
0.001590418012
0.001633062717
0.001667394969
0.001693698768
0.00171237969
0.001723970717
0.001729084467
0.001728444992
0.001722818065
0.001712732912
0.001698931889
0.001682033004
0.001662982449
0.001641952016
0.001619232841
0.001595021567
0.001569951934
0.001544316541
0.001518362679
0.001492295829
0.001466284563
0.001440465308
0.001414946779
0.00138981408
0.001365132387
0.001340950269
0.001317302479
0.001294212462
0.001271694483
0.001249755425
0.001228396385
0.001207613904
0.001187401103
0.001167748665
0.001148645701
0.001130080546
0.001112041553
0.001094835486
0.001077805147
0.001061547132
0.00104544816
0.001029785149
0.001014543528
0.0009997087141
0.0009852663019
0.0009712022486
0.0009575029365
0.000944155211
0.0009311464357
0.0009184644975
0.0009060978742
0.0008940356954
0.0008822678531
0.0008707852289
0.0008595800723
0.0008488451178
0.0008381672394
0.000827731487
0.0008175305571
0.0008075571474
0.0007978040439
0.0007882642269
0.0007789308815
0.0007697974279
0.0007608575319
0.0007521050965
0.0007435342668
0.0007351394193
0.0007269151497
0.0007188562647
0.0007109577909
0.0007032149474
0.0006956231341
0.0006881779353
0.0006808751154
0.0006737105903
0.000666680437
0.0006597808884
0.0006530083122
0.0006463592084
0.00063983021
0.0006334180802
0.00062711969
0.0006209320262
0.0006148521833
0.0006088773617
0.0006030048567
0.0005972320546
0.0005915564407
0.0005859755769
0.0005804871081
0.0005750887635
0.0005697783449
0.0005645537264
0.0005594128518
0.000554353731
0.0005493744381
0.0005444731057
0.0005396479304
0.0005348971602
0.0005302190998
0.0005256121085
0.0005210745885
0.0005166049974
0.0005122018365
0.0005078636476
0.0005035890219
0.0004993765897
0.000495225019
0.0004911330182
0.0004870993328
0.0004831227416
0.0004792020582
0.0004753361329
0.0004715238442
0.0004677641013
0.0004640558454
0.0004603980461
0.0004567896991
0.0004532298268
0.0004497174779
0.0004462517292
0.0004428316785
0.0004394564453
0.0004361251768
0.0004328370389
0.0004295912184
0.0004263869232
0.0004232233807
0.0004200998392
0.0004170155658
0.0004139698425
0.0004109619704
0.0004079912677
0.0004050570704
0.0004021587305
0.0003992956113
0.0003964670954
0.0003936725798
0.000390911473
0.0003881831988
0.0003854871942
0.0003828229092
0.0003801898063
0.0003775873617
0.0003750150608
0.0003724724006
0.0003699588919
0.0003674740539
0.0003650174177
0.0003625885257
0.0003601869282
0.0003578121863
0.0003554638695
0.0003531415578
0.0003508448401
0.0003485733139
0.0003463265844
0.0003441042651
0.0003419059794
0.0003397313568
0.0003375800344
0.0003354516578
0.0003333458796
0.0003312623589
0.0003292007625
0.000327160763
0.0003251420387
0.000323144277
0.0003211671707
0.0003192104168
0.0003172737201
0.0003153567912
0.0003134593446
0.0003115811012
0.0003097217882
0.000307881137
0.0003060588852
0.0003042547737
0.0003024685499
0.0003006999651
0.0002989487747
0.00029721474
0.0002954976261
0.0002937972031
0.0002921132439
0.0002904455257
0.000288793831
0.0002871579458
0.0002855376596
0.0002839327661
0.0002823430617
0.0002807683473
0.000279208428
0.0002776631108
0.0002761322063
0.0002746155298
0.0002731128989
0.0002716241334
0.0002701490572
0.0002686874981
0.0002672392853
0.0002658042512
0.0002643822316
0.0002629730643
0.0002615765905
0.0002601926548
0.0002588211018
0.0002574617806
0.0002561145432
0.0002547792424
0.000253455734
0.0002521438767
0.0002508435314
0.0002495545606
0.0002482768288
0.0002470102033
0.0002457545539
0.000244509751
0.0002432756685
0.0002420521814
0.0002408391667
0.0002396365036
0.0002384440728
0.0002372617573
0.0002360894413
0.0002349270105
0.0002337743537
0.00023263136
0.0002314979207
0.0002303739287
0.000229259278
0.0002281538651
0.0002270575875
0.0002259703438
0.0002248920347
0.000223822562
0.0002227618289
0.00022170974
0.0002206662011
0.0002196311203
0.000218604406
0.0002175859678
0.0002165757177
0.0002155735675
0.0002145794313
0.0002135932241
0.0002126148615
0.0002116442615
0.0002106813423
0.0002097260231
0.0002087782252
0.0002078378702
0.0002069048809
0.0002059791813
0.0002050606961
0.0002041493521
0.0002032450759
0.0002023477951
0.0002014574391
0.0002005739378
0.0001996972221
0.0001988272243
0.0001979638768
0.0001971071135
0.0001962568688
0.0001954130784
0.0001945756789
0.0001937446071
0.0001929198012
0.0001921012003
0.0001912887443
0.0001904823733
0.0001896820287
0.0001888876532
0.0001880991891
0.0001873165802
0.0001865397712
0.0001857687072
0.0001850033342
0.0001842435984
0.0001834894473
0.0001827408289
0.000181997692
0.000181259986
0.0001805276609
0.0001798006672
0.0001790789566
0.0001783624808
0.0001776511923
0.0001769450444
0.000176243991
0.0001755479864
0.0001748569853
0.0001741709435
0.0001734898171
0.0001728135629
0.0001721421379
0.0001714754996
0.0001708136065
0.0001701564175
0.0001695038918
0.0001688559889
0.0001682126692
0.0001675738935
0.0001669396231
0.0001663098195
0.0001656844451
0.000165063462
0.0001644468335
0.0001638345232
0.0001632264948
0.0001626227128
0.0001620231417
0.0001614277465
0.0001608364929
0.0001602493469
0.0001596662746
0.0001590872428
0.0001585122184
0.0001579411688
0.0001573740618
0.0001568108657
0.0001562515484
0.0001556960791
0.0001551444271
0.0001545965615
0.0001540524521
0.0001535120691
0.0001529753827
0.0001524423638
0.0001519129834
0.0001513872128
0.0001508650234
0.0001503463872
0.0001498312765
0.0001493196637
0.0001488115213
0.0001483068223
0.0001478055401
0.0001473076483
0.0001468131203
0.0001463219302
0.0001458340525
0.0001453494615
0.0001448681319
0.0001443900389
0.0001439151574
0.0001434434631
0.0001429749315
0.0001425095386
0.0001420472604
0.0001415880731
0.0001411319534
0.000140678878
0.0001402288238
0.0001397817679
0.0001393376878
0.0001388965609
0.0001384583649
0.0001380230778
0.0001375906777
0.000137161143
0.000136734452
0.0001363105834
0.000135889516
0.0001354712289
0.0001350557012
0.0001346429124
0.0001342328419
0.0001338254694
0.0001334207749
0.0001330187381
0.0001326193395
0.0001322225594
0.0001318283782
0.0001314367765
0.0001310477352
0.0001306612353
0.0001302772577
0.0001298957839
0.0001295167952
0.000129140273
0.0001287661991
0.0001283945554
0.0001280253238
0.0001276584863
0.0001272940251
0.0001269319226
0.0001265721612
0.0001262147236
0.0001258595923
0.0001255067502
0.0001251561802
0.0001248078654
0.0001244617889
0.0001241179338
0.0001237762834
0.0001234368211
0.0001230995302
0.0001227643944
0.0001224313971
0.0001221005218
0.0001217717522
0.0001214450717
0.0001211204639
0.0001207979123
0.0001204774003
0.0001201589113
0.0001198424283
0.0001195279343
0.0001192154121
0.0001189048441
0.0001185962122
0.000118289498
0.0001179846825
0.0001176817458
0.0001173806673
0.0001170814252
0.0001167839963
0.000116488356
0.0001161944773
0.0001159023308
0.0001156118843
0.0001153231015
0.0001150359416
0.0001147503585
0.0001144662996
0.0001141837055
0.0001139025099
0.0001136226421
0.0001133440351
0.0001130666464
0.0001127905079
0.0001125158453
0.0001122433678
0.000111984598
0.0001117292621
0.0001114742145
0.0001112159897
0.0001109546733
0.0001106939468
0.0001104340283
0.0001101749947
0.0001099168702
0.0001096597091
0.0001094037311
0.0001091496255
0.0001089084871
0.0001086704835
0.0001084328943
0.000108192044
0.0001079476138
0.0001077034823
0.0001074601212
0.0001072183215
0.0001069888992
0.0001067622815
0.000106534851
0.0001063030573
0.0001060692816
0.0001058359261
0.0001056038923
0.0001053837141
0.0001051643305
0.0001049494747
0.0001047333482
0.0001045221273
0.000104306858
0.0001040916929
0.0001038748809
0.0001036575752
0.0001034402494
0.0001032233364
0.0001030075898
0.0001028031851
0.0001026012703
0.0001023986031
0.0001021916089
0.0001019937801
0.0001017969582
0.0001016021541
0.0001014081395
0.0001012147211
0.0001010203773
0.0001008240862
0.0001006262493
0.000100428818
0.0001002325943
0.0001000467229
9.986186034e-05
9.967608361e-05
9.948838221e-05
9.929928505e-05
9.910970065e-05
9.892037112e-05
9.873139946e-05
9.854323578e-05
9.836515194e-05
9.818908459e-05
9.80146979e-05
9.784187425e-05
9.767041395e-05
9.749919713e-05
9.732948131e-05
9.716036565e-05
9.698642798e-05
9.681325475e-05
9.663968748e-05
9.646589833e-05
9.629276653e-05
9.612948494e-05
9.596849625e-05
9.580791323e-05
9.564486602e-05
9.547848831e-05
9.531269222e-05
9.515610618e-05
9.500041849e-05
9.484305288e-05
9.468442368e-05
9.452430441e-05
9.436409075e-05
9.420405799e-05
9.404475423e-05
9.389473952e-05
9.374670287e-05
9.359900284e-05
9.34484665e-05
9.329452489e-05
9.314097307e-05
9.29964052e-05
9.285374156e-05
9.271089418e-05
9.25651893e-05
9.241703115e-05
9.227727947e-05
9.213760406e-05
9.200064368e-05
9.186468785e-05
9.172898803e-05
9.159118303e-05
9.144996941e-05
9.131590998e-05
9.118331988e-05
9.105068838e-05
9.09202142e-05
9.079043071e-05
9.066253283e-05
9.05316621e-05
9.040391929e-05
9.027782501e-05
9.015215945e-05
9.002774496e-05
8.990414196e-05
8.97826095e-05
8.965921873e-05
8.953935896e-05
8.941776007e-05
8.929940835e-05
8.918042864e-05
8.906335174e-05
8.894627077e-05
8.883070627e-05
8.871522771e-05
8.860110229e-05
8.848726204e-05
8.837493025e-05
8.826353243e-05
8.81533395e-05
8.804221926e-05
8.793296122e-05
8.782371666e-05
8.771453669e-05
8.761032528e-05
8.750351386e-05
8.740010713e-05
8.729685877e-05
8.719575411e-05
8.709309136e-05
8.699464391e-05
8.689392072e-05
8.679558133e-05
8.669391193e-05
8.659209257e-05
8.649055683e-05
8.638948618e-05
8.628898756e-05
8.618912512e-05
8.60899357e-05
8.599144096e-05
8.589365714e-05
8.579660258e-05
8.570030516e-05
8.560481185e-05
8.551020415e-05
8.541662493e-05
8.532431837e-05
8.523365245e-05
8.5145008e-05
8.505793946e-05
8.497195682e-05
8.488646077e-05
8.480121877e-05
8.472177771e-05
8.464238947e-05
8.45623058e-05
8.448569231e-05
8.440813285e-05
8.433270653e-05
8.425364511e-05
8.417923678e-05
8.410106365e-05
8.402349592e-05
8.39468403e-05
8.387114582e-05
8.379639157e-05
8.372254943e-05
8.364959726e-05
8.357751866e-05
8.35063005e-05
8.343593109e-05
8.336639904e-05
8.329769248e-05
8.322979857e-05
8.316270317e-05
8.309639054e-05
8.303084317e-05
8.296604161e-05
8.290196433e-05
8.283858761e-05
8.277588535e-05
8.271382897e-05
8.265238719e-05
8.259152592e-05
8.253120809e-05
8.247139352e-05
8.241203887e-05
8.235309768e-05
8.229452058e-05
8.223625568e-05
8.217824903e-05
8.212044608e-05
8.20628084e-05
8.200541562e-05
8.194877044e-05
8.189434911e-05
8.184303029e-05
8.178830141e-05
8.173214387e-05
8.167567554e-05
8.161897618e-05
8.156203675e-05
8.15048472e-05
8.14474296e-05
8.13898576e-05
8.133236448e-05
8.127951411e-05
8.122345493e-05
8.116484732e-05
8.110482328e-05
8.104367877e-05
8.098144297e-05
8.091808252e-05
8.085352947e-05
8.07876988e-05
8.07204972e-05
8.065182684e-05
8.058158671e-05
8.050967314e-05
8.043598013e-05
8.036039958e-05
8.028282149e-05
8.020313419e-05
8.012122453e-05
8.003697808e-05
7.995027931e-05
7.986101187e-05
7.976905878e-05
7.967430266e-05
7.957662607e-05
7.947591176e-05
7.93720431e-05
7.926490447e-05
7.915438183e-05
7.904036336e-05
7.892274042e-05
7.880140867e-05
7.867626972e-05
7.854723364e-05
7.841422258e-05
7.827717625e-05
7.813605759e-05
7.799085936e-05
7.78416469e-05
7.768884153e-05
7.753422658e-05
7.738148495e-05
7.72370669e-05
7.707760277e-05
7.690613789e-05
7.672858516e-05
7.654575603e-05
7.635790281e-05
7.616511537e-05
7.596743667e-05
7.576489544e-05
7.555751679e-05
7.534532682e-05
7.51283552e-05
7.490663684e-05
7.468021294e-05
7.444913188e-05
7.421344974e-05
7.397323079e-05
7.372854786e-05
7.347948264e-05
7.32261261e-05
7.296857868e-05
7.270695035e-05
7.24413612e-05
7.217194163e-05
7.189883269e-05
7.162218676e-05
7.134216822e-05
7.105895437e-05
7.077273659e-05
7.048372213e-05
7.019213611e-05
6.989822392e-05
6.960225463e-05
6.930452498e-05
6.900536412e-05
6.870513967e-05
6.840426503e-05
6.810320782e-05
6.780249954e-05
6.750274668e-05
6.72046426e-05
6.690898195e-05
6.661667959e-05
6.632880103e-05
6.604661734e-05
6.577170498e-05
6.55061202e-05
6.525268593e-05
6.501543495e-05
6.48002591e-05
6.461580534e-05
6.447457501e-05
6.439377358e-05
)
;

boundaryField
{
    base
    {
        type            empty;
    }
    outlet
    {
        type            zeroGradient;
    }
    inlet
    {
        type            fixedValue;
        value           uniform 0;
    }
}


// ************************************************************************* //
