/*--------------------------------*- C++ -*----------------------------------*\
| =========                 |                                                 |
| \\      /  F ield         | OpenFOAM: The Open Source CFD Toolbox           |
|  \\    /   O peration     | Version:  v1712                                 |
|   \\  /    A nd           | Web:      www.OpenFOAM.com                      |
|    \\/     M anipulation  |                                                 |
\*---------------------------------------------------------------------------*/
FoamFile
{
    version     2.0;
    format      ascii;
    class       volScalarField;
    location    "0.001";
    object      H2;
}
// * * * * * * * * * * * * * * * * * * * * * * * * * * * * * * * * * * * * * //

dimensions      [0 0 0 0 0 0 0];


internalField   nonuniform List<scalar> 
1500
(
0.02852007935
0.02852007935
0.02852007935
0.02852007935
0.02852007935
0.02852007935
0.02852007935
0.02852007935
0.02852007935
0.02852007935
0.02852007935
0.02852007935
0.02852007935
0.02852007935
0.02852007935
0.02852007935
0.02852007935
0.02852007935
0.02852007935
0.02852007935
0.02852007935
0.02852007935
0.02852007935
0.02852007935
0.02852007935
0.02852007935
0.02852007935
0.02852007935
0.02852007935
0.02852007935
0.02852007935
0.02852007935
0.02852007935
0.02852007935
0.02852007935
0.02852007935
0.02852007935
0.02852007935
0.02852007935
0.02852007935
0.02852007935
0.02852007935
0.02852007935
0.02852007935
0.02852007935
0.02852007935
0.02852007935
0.02852007935
0.02852007935
0.02852007935
0.02852007935
0.02852007935
0.02852007935
0.02852007935
0.02852007935
0.02852007935
0.02852007935
0.02852007935
0.02852007935
0.02852007935
0.02852007935
0.02852007935
0.02852007935
0.02852007935
0.02852007935
0.02852007935
0.02852007935
0.02852007935
0.02852007935
0.02852007935
0.02852007935
0.02852007935
0.02852007935
0.02852007935
0.02852007935
0.02852007935
0.02852007935
0.02852007935
0.02852007935
0.02852007935
0.02852007935
0.02852007935
0.02852007935
0.02852007935
0.02852007935
0.02852007935
0.02852007935
0.02852007935
0.02852007935
0.02852007935
0.02852007935
0.02852007935
0.02852007935
0.02852007935
0.02852007935
0.02852007935
0.02852007935
0.02852007935
0.02852007935
0.02852007935
0.02852007935
0.02852007935
0.02852007935
0.02852007935
0.02852007935
0.02852007935
0.02852007935
0.02852007935
0.02852007935
0.02852007935
0.02852007935
0.02852007935
0.02852007935
0.02852007935
0.02852007935
0.02852007935
0.02852007935
0.02852007935
0.02852007935
0.02852007935
0.02852007935
0.02852007935
0.02852007935
0.02852007935
0.02852007935
0.02852007935
0.02852007935
0.02852007935
0.02852007935
0.02852007935
0.02852007935
0.02852007935
0.02852007935
0.02852007935
0.02852007935
0.02852007935
0.02852007935
0.02852007935
0.02852007935
0.02852007935
0.02852007935
0.02852007935
0.02852007935
0.02852007935
0.02852007935
0.02852007935
0.02852007935
0.02852007935
0.02852007935
0.02852007935
0.02852007935
0.02852007935
0.02852007935
0.02852007935
0.02852007935
0.02852007935
0.02852007935
0.02852007935
0.02852007935
0.02852007935
0.02852007935
0.02852007935
0.02852007935
0.02852007935
0.02852007935
0.02852007935
0.02852007935
0.02852007935
0.02852007935
0.02852007935
0.02852007935
0.02852007935
0.02852007935
0.02852007935
0.02852007935
0.02852007935
0.02852007935
0.02852007935
0.02852007935
0.02852007935
0.02852007935
0.02852007935
0.02852007935
0.02852007935
0.02852007935
0.02852007935
0.02852007935
0.02852007935
0.02852007935
0.02852007935
0.02852007935
0.02852007935
0.02852007935
0.02852007935
0.02852007935
0.02852007935
0.02852007935
0.02852007935
0.02852007935
0.02852007935
0.02852007935
0.02852007935
0.02852007935
0.02852007935
0.02852007935
0.02852007935
0.02852007935
0.02852007935
0.02852007935
0.02852007935
0.02852007935
0.02852007935
0.02852007935
0.02852007935
0.02852007935
0.02852007935
0.02852007935
0.02852007935
0.02852007935
0.02852007935
0.02852007935
0.02852007935
0.02852007935
0.02852007935
0.02852007935
0.02852007935
0.02852007935
0.02852007935
0.02852007935
0.02852007935
0.02852007935
0.02852007935
0.02852007935
0.02852007935
0.02852007935
0.02852007935
0.02852007935
0.02852007935
0.02852007935
0.02852007935
0.02852007935
0.02852007935
0.02852007935
0.02852007935
0.02852007935
0.02852007935
0.02852007935
0.02852007935
0.02852007935
0.02852007935
0.02852007935
0.02852007935
0.02852007935
0.02852007935
0.02852007935
0.02852007935
0.02852007935
0.02852007935
0.02852007935
0.02852007935
0.02852007935
0.02852007935
0.02852007935
0.02852007935
0.02852007935
0.02852007935
0.02852007935
0.02852007935
0.02852007935
0.02852007935
0.02852007935
0.02852007935
0.02852007935
0.02852007935
0.02852007935
0.02852007935
0.02852007935
0.02852007935
0.02852007935
0.02852007935
0.02852007935
0.02852007935
0.02852007935
0.02852007935
0.02852007935
0.02852007935
0.02852007935
0.02852007935
0.02852007935
0.02852007935
0.02852007935
0.02852007935
0.02852007935
0.02852007935
0.02852007935
0.02852007935
0.02852007935
0.02852007935
0.02852007935
0.02852007935
0.02852007935
0.02852007935
0.02852007935
0.02852007935
0.02852007935
0.02852007935
0.02852007935
0.02852007935
0.02852007935
0.02852007935
0.02852007935
0.02852007935
0.02852007935
0.02852007935
0.02852007935
0.02852007935
0.02852007935
0.02852007935
0.02852007935
0.02852007935
0.02852007935
0.02852007935
0.02852007935
0.02852007935
0.02852007935
0.02852007935
0.02852007935
0.02852007935
0.02852007935
0.02852007935
0.02852007935
0.02852007935
0.02852007935
0.02852007935
0.02852007935
0.02852007935
0.02852007935
0.02852007935
0.02852007935
0.02852007935
0.02852007935
0.02852007935
0.02852007935
0.02852007935
0.02852007935
0.02852007935
0.02852007935
0.02852007935
0.02852007935
0.02852007935
0.02852007935
0.02852007935
0.02852007935
0.02852007935
0.02852007935
0.02852007935
0.02852007935
0.02852007935
0.02852007935
0.02852007935
0.02852007935
0.02852007935
0.02852007935
0.02852007935
0.02852007935
0.02852007935
0.02852007935
0.02852007935
0.02852007935
0.02852007935
0.02852007935
0.02852007935
0.02852007935
0.02852007935
0.02852007935
0.02852007935
0.02852007935
0.02852007935
0.02852007935
0.02852007935
0.02852007935
0.02852007935
0.02852007935
0.02852007935
0.02852007935
0.02852007935
0.02852007935
0.02852007935
0.02852007935
0.02852007935
0.02852007935
0.02852007935
0.02852007935
0.02852007935
0.02852007935
0.02852007935
0.02852007935
0.02852007935
0.02852007935
0.02852007935
0.02852007935
0.02852007935
0.02852007935
0.02852007935
0.02852007935
0.02852007935
0.02852007935
0.02852007935
0.02852007935
0.02852007935
0.02852007935
0.02852007935
0.02852007935
0.02852007935
0.02852007935
0.02852007935
0.02852007935
0.02852007935
0.02852007935
0.02852007935
0.02852007935
0.02852007935
0.02852007935
0.02852007935
0.02852007935
0.02852007935
0.02852007935
0.02852007935
0.02852007935
0.02852007935
0.02852007935
0.02852007935
0.02852007935
0.02852007935
0.02852007935
0.02852007935
0.02852007935
0.02852007935
0.02852007935
0.02852007935
0.02852007935
0.02852007935
0.02852007935
0.02852007935
0.02852007935
0.02852007935
0.02852007935
0.02852007935
0.02852007935
0.02852007935
0.02852007935
0.02852007935
0.02852007935
0.02852007935
0.02852007935
0.02852007935
0.02852007935
0.02852007935
0.02852007935
0.02852007935
0.02852007935
0.02852007935
0.02852007935
0.02852007935
0.02852007935
0.02852007935
0.02852007935
0.02852007935
0.02852007935
0.02852007935
0.02852007935
0.02852007935
0.02852007935
0.02852007935
0.02852007935
0.02852007935
0.02852007935
0.02852007935
0.02852007935
0.02852007935
0.02852007935
0.02852007935
0.02852007935
0.02852007935
0.02852007935
0.02852007935
0.02852007935
0.02852007935
0.02852007935
0.02852007935
0.02852007935
0.02852007935
0.02852007935
0.02852007935
0.02852007935
0.02852007935
0.02852007935
0.02852007935
0.02852007935
0.02852007935
0.02852007935
0.02852007935
0.02852007935
0.02852007935
0.02852007935
0.02852007935
0.02852007935
0.02852007935
0.02852007935
0.02852007935
0.02852007935
0.02852007935
0.02852007935
0.02852007935
0.02852007935
0.02852007935
0.02852007935
0.02852007935
0.02852007935
0.02852007935
0.02852007935
0.02852007935
0.02852007935
0.02852007935
0.02852007935
0.02852007935
0.02852007935
0.02852007935
0.02852007935
0.02852007935
0.02852007935
0.02852007935
0.02852007935
0.02852007935
0.02852007935
0.02852007935
0.02852007935
0.02852007935
0.02852007935
0.02852007935
0.02852007935
0.02852007935
0.02852007935
0.02852007935
0.02852007935
0.02852007935
0.02852007935
0.02852007935
0.02852007935
0.02852007935
0.02852007935
0.02852007935
0.02852007935
0.02852007935
0.02852007935
0.02852007935
0.02852007935
0.02852007935
0.02852007935
0.02852007935
0.02852007935
0.02852007935
0.02852007935
0.02852007935
0.02852007935
0.02852007935
0.02852007935
0.02852007935
0.02852007935
0.02852007935
0.02852007935
0.02852007935
0.02852007935
0.02852007935
0.02852007935
0.02852007935
0.02852007935
0.02852007935
0.02852007935
0.02852007935
0.02852007935
0.02852007935
0.02852007935
0.02852007935
0.02852007935
0.02852007935
0.02852007935
0.02852007935
0.02852007935
0.02852007935
0.02852007935
0.02852007935
0.02852007935
0.02852007935
0.02852007935
0.02852007935
0.02852007935
0.02852007935
0.02852007935
0.02852007935
0.02852007935
0.02852007935
0.02852007935
0.02852007935
0.02852007935
0.02852007935
0.02852007935
0.02852007935
0.02852007935
0.02852007935
0.02852007935
0.02852007935
0.02852007935
0.02852007935
0.02852007935
0.02852007935
0.02852007935
0.02852007935
0.02852007935
0.02852007935
0.02852007935
0.02852007935
0.02852007935
0.02852007935
0.02852007935
0.02852007935
0.02852007935
0.02852007935
0.02852007935
0.02852007935
0.02852007935
0.02852007935
0.02852007935
0.02852007935
0.02852007935
0.02852007935
0.02852007935
0.02852007935
0.02852007935
0.02852007935
0.02852007935
0.02852007935
0.02852007935
0.02852007935
0.02852007935
0.02852007935
0.02852007935
0.02852007935
0.02852007935
0.02852007935
0.02852007934
0.02852007934
0.02852007934
0.02852007934
0.02852007933
0.02852007932
0.02852007932
0.02852007931
0.02852007929
0.02852007927
0.02852007925
0.02852007921
0.02852007917
0.0285200791
0.02852007902
0.02852007892
0.02852007878
0.02852007859
0.02852007835
0.02852007803
0.02852007761
0.02852007705
0.02852007631
0.02852007534
0.02852007406
0.02852007238
0.02852007017
0.02852006727
0.02852006346
0.02852005847
0.02852005193
0.02852004338
0.02852003221
0.02852001761
0.02851999857
0.02851997373
0.02851994137
0.02851989954
0.02851984508
0.02851977342
0.02851968197
0.02851956571
0.02851941108
0.02851920763
0.02851894253
0.02851859747
0.02851814863
0.02851756512
0.02851680696
0.02851582237
0.02851454445
0.02851288668
0.02851073734
0.02850795217
0.02850434508
0.02849967615
0.02849363627
0.02848582753
0.02847573817
0.02846271072
0.02844590164
0.02842423051
0.0283963167
0.02836043947
0.02831471093
0.02825667437
0.02818329558
0.02809892454
0.0279927018
0.02785351598
0.02767821241
0.02746139801
0.02719601315
0.02687460178
0.02650438053
0.02609707548
0.02561332157
0.02505144648
0.02448482077
0.02382752476
0.02317553678
0.02244976865
0.02168483738
0.02089262177
0.02007582588
0.01923663338
0.01837728538
0.01750062053
0.016610513
0.01571221045
0.01481254857
0.01391984137
0.01304294946
0.01218894961
0.01139178011
0.01062941644
0.009903075818
0.009208940333
0.008557396865
0.00795909389
0.007413715504
0.006919660216
0.006475233599
0.006078440456
0.005726582829
0.005416421997
0.00515321896
0.004922080088
0.004716374328
0.00453832016
0.004384506079
0.004255966371
0.004145388202
0.004049478464
0.003965419517
0.003893188085
0.003831003389
0.003777322519
0.003730813155
0.003690331716
0.003654901822
0.003623693774
0.003596005513
0.003571245229
0.003548915797
0.00352860083
0.003509952531
0.003492681059
0.003476545296
0.003461344902
0.003446913354
0.003433111917
0.003419824305
0.003406951792
0.003394408567
0.003382116188
0.00337036869
0.003358459859
0.00334704258
0.00333545476
0.003324005152
0.003312670387
0.003301432759
0.00329027856
0.003279197288
0.003268180958
0.003257223496
0.00324632023
0.0032354674
0.00322466174
0.003213900003
0.003203178393
0.003192491744
0.003181831687
0.003171509251
0.003160939921
0.003150427025
0.003139968076
0.003129561863
0.003119207796
0.003108905705
0.003098655658
0.003088457882
0.003078312698
0.00306822047
0.003058181588
0.003048196439
0.00303826539
0.003028388776
0.003018566922
0.003008800109
0.002999088574
0.002989432521
0.002979832128
0.002970287519
0.002960798789
0.00295136601
0.002941989206
0.002932668369
0.002923403463
0.002914194436
0.002905041193
0.002895943617
0.002886901572
0.002877914899
0.002868983419
0.002860106925
0.00285128521
0.002842518033
0.00283380514
0.002825146273
0.002816541155
0.002807989498
0.002799491003
0.002791045362
0.002782652258
0.002774311361
0.002766022343
0.002757784863
0.002749598575
0.002741463137
0.002733378187
0.002725343372
0.002717358333
0.002709422701
0.002701536115
0.002693698211
0.002685908618
0.002678166969
0.002670472897
0.002662826031
0.002655226
0.002647672442
0.002640164988
0.002632703271
0.002625286927
0.002617915595
0.002610588914
0.002603306521
0.002596068059
0.002588873177
0.002581721522
0.002574612739
0.002567546485
0.002560522415
0.002553540184
0.002546599451
0.002539699879
0.002532841136
0.002526022893
0.002519244816
0.00251250658
0.00250580786
0.00249914834
0.002492527705
0.002485945633
0.002479401816
0.002472895948
0.002466427719
0.002459996827
0.002453602971
0.002447245854
0.002440925181
0.002434640662
0.002428392005
0.002422178922
0.002416001131
0.002409858347
0.002403750294
0.002397676697
0.00239163728
0.002385631772
0.002379659903
0.002373721407
0.00236781602
0.002361943482
0.00235610353
0.002350295907
0.002344520362
0.002338776639
0.002333064488
0.002327383661
0.002321733914
0.002316115001
0.002310526683
0.002304968718
0.002299440866
0.002293942895
0.002288474572
0.002283035664
0.002277625942
0.002272245181
0.002266893152
0.00226156963
0.002256274397
0.00225100723
0.002245767914
0.002240556231
0.002235371967
0.002230214911
0.002225084848
0.002219981572
0.002214904876
0.002209854556
0.002204830407
0.002199832224
0.002194859809
0.002189912965
0.002184991495
0.002180095204
0.002175223897
0.002170377383
0.002165555474
0.002160757982
0.002155984718
0.0021512355
0.002146510147
0.002141808473
0.002137130301
0.002132475455
0.002127843758
0.002123235036
0.002118649118
0.002114085831
0.002109545009
0.002105026487
0.002100530096
0.002096055675
0.002091603064
0.002087172103
0.002082762633
0.002078374501
0.002074007552
0.002069661637
0.002065336601
0.0020610323
0.002056748589
0.00205248532
0.002048242355
0.002044019552
0.002039816773
0.002035633883
0.002031470746
0.002027327231
0.002023203207
0.002019098544
0.002015013119
0.002010946804
0.002006899479
0.002002871022
0.001998861313
0.001994870236
0.001990897678
0.001986943523
0.00198300766
0.00197908998
0.001975190374
0.001971308736
0.001967444961
0.001963598949
0.001959770596
0.001955959804
0.001952166476
0.001948390515
0.001944631825
0.001940890316
0.001937165892
0.001933458468
0.001929767952
0.001926094256
0.001922437297
0.001918796988
0.001915173247
0.001911565991
0.001907975139
0.001904400613
0.001900842332
0.001897300219
0.001893774197
0.001890264191
0.001886770126
0.00188329193
0.001879829528
0.001876382848
0.00187295182
0.001869536372
0.001866136438
0.001862751944
0.001859382824
0.00185602901
0.001852690437
0.001849367034
0.001846058737
0.001842765483
0.001839487202
0.001836223832
0.001832975308
0.001829741568
0.001826522546
0.001823318179
0.001820128404
0.001816953159
0.00181379238
0.001810646006
0.001807513976
0.001804396225
0.001801292694
0.001798203321
0.001795128044
0.001792066801
0.001789019532
0.001785986176
0.001782966671
0.001779960956
0.001776968972
0.001773990657
0.001771025951
0.001768074791
0.001765137119
0.001762212874
0.001759301995
0.001756404422
0.001753520092
0.001750648949
0.001747790929
0.001744945973
0.001742114022
0.001739295012
0.001736488886
0.001733695583
0.001730915042
0.001728147205
0.001725392009
0.001722649395
0.001719919303
0.001717201674
0.001714496448
0.001711803564
0.001709122963
0.001706454585
0.001703798371
0.001701154263
0.001698522198
0.001695902119
0.001693293968
0.001690697685
0.001688113211
0.001685540487
0.001682979455
0.001680430057
0.001677892236
0.001675365932
0.001672851087
0.001670347645
0.001667855549
0.001665374741
0.001662905164
0.001660446762
0.001657999478
0.001655563258
0.001653138044
0.00165072378
0.001648320414
0.001645927888
0.001643546149
0.001641175143
0.001638814815
0.001636465112
0.001634125982
0.001631797372
0.001629479228
0.001627171498
0.001624874132
0.001622587078
0.001620310286
0.001618043704
0.001615787284
0.001613540974
0.001611304727
0.001609078494
0.001606862227
0.001604655878
0.001602459399
0.001600272743
0.001598095865
0.001595928719
0.001593771259
0.00159162344
0.001589485217
0.001587356548
0.001585237387
0.001583127692
0.00158102742
0.00157893653
0.00157685498
0.001574782727
0.001572719731
0.001570665952
0.00156862135
0.001566585885
0.001564559517
0.001562542209
0.00156053392
0.001558534613
0.001556544251
0.001554562794
0.001552590207
0.001550626451
0.00154867149
0.001546725286
0.001544787804
0.001542859005
0.001540938855
0.001539027315
0.00153712435
0.001535229923
0.001533343996
0.001531466531
0.001529597493
0.001527736841
0.001525884539
0.001524040546
0.001522204822
0.001520377327
0.001518558019
0.001516746854
0.001514943788
0.001513148775
0.001511361767
0.001509582716
0.001507811568
0.001506048271
0.001504292767
0.001502544996
0.001500804897
0.001499072402
0.001497347443
0.001495629946
0.001493919834
0.001492217028
0.001490521442
0.001488832991
0.001487151586
0.001485477136
0.001483809551
0.001482148745
0.001480494633
0.001478847136
0.001477206177
0.001475571667
0.001473943473
0.001472321338
0.001470704679
0.001469092149
0.001467480683
0.001465961217
0.001464451002
0.001462935106
0.001461393042
0.001459828879
0.001458272449
0.001456722821
0.001455179415
0.001453641748
0.001452109139
0.001450580208
0.001449051891
0.001447612413
0.001446181503
0.001444747427
0.001443287868
0.001441803685
0.001440325866
0.001438852304
0.001437379625
0.001435994108
0.001434617438
0.00143323043
0.001431810375
0.001430379444
0.001428953125
0.001427528444
0.001426189127
0.001424836485
0.001423513375
0.001422169413
0.001420861651
0.001419516349
0.001418176497
0.001416825287
0.001415475194
0.001414127325
0.001412781476
0.001411435366
0.001410171117
0.001408914462
0.001407646331
0.00140633487
0.001405094436
0.001403850218
0.001402615825
0.001401382646
0.001400153867
0.001398917278
0.001397670185
0.001396411344
0.001395156291
0.001393902747
0.001392726146
0.001391547014
0.001390356323
0.001389153684
0.001387941827
0.001386729938
0.001385522109
0.001384316019
0.001383107787
0.001381973373
0.00138084214
0.001379715866
0.00137859607
0.001377481989
0.001376364139
0.001375256835
0.001374154276
0.001373011465
0.001371883287
0.001370757156
0.001369629739
0.001368499834
0.001367442802
0.001366392957
0.001365342757
0.001364273888
0.001363179996
0.001362087841
0.001361066934
0.001360044529
0.001359004815
0.001357957878
0.001356901192
0.0013558477
0.001354796563
0.001353744654
0.001352762053
0.001351784804
0.00135080743
0.00134980857
0.001348784532
0.001347761071
0.001346806757
0.001345858753
0.001344906812
0.001343932259
0.001342935312
0.001342007353
0.001341067724
0.001340147207
0.001339230788
0.001338316096
0.0013373854
0.001336423029
0.001335519946
0.00133462324
0.001333721885
0.001332834636
0.001331948592
0.001331077146
0.00133017799
0.001329303794
0.001328441111
0.001327578948
0.001326724253
0.001325872864
0.001325037129
0.00132418167
0.001323355481
0.001322510069
0.001321691754
0.001320863295
0.001320050881
0.001319234601
0.001318430134
0.001317623416
0.001316827055
0.001316030055
0.001315244046
0.00131446401
0.001313693666
0.001312909347
0.001312141716
0.001311372443
0.001310599
0.00130986806
0.001309109115
0.001308377721
0.001307643127
0.001306925587
0.001306189771
0.001305490266
0.001304768194
0.001304069837
0.001303344604
0.00130262313
0.001301907355
0.001301197576
0.001300493869
0.0012997964
0.001299105424
0.001298421196
0.001297743933
0.001297073818
0.001296411047
0.001295755887
0.001295108803
0.001294470552
0.001293842088
0.001293224207
0.001292617594
0.001292019194
0.001291428095
0.001290841819
0.001290256826
0.001289718503
0.001289175896
0.001288627135
0.001288108407
0.0012875819
0.00128707924
0.00128654894
0.001286065751
0.001285557147
0.001285060345
0.001284575526
0.001284102452
0.001283640917
0.001283190893
0.001282752491
0.001282325889
0.001281911299
0.001281508951
0.001281119091
0.001280741978
0.001280377886
0.001280027101
0.001279689918
0.001279366643
0.001279057594
0.001278763096
0.001278483484
0.001278219101
0.001277970297
0.001277737428
0.001277520856
0.001277320946
0.001277138063
0.001276972571
0.001276824825
0.001276695165
0.001276583909
0.001276491341
0.00127641771
0.00127636321
0.00127632803
0.001276311437
0.00127630992
0.001276325768
0.001276368073
0.001276436207
0.001276528061
0.001276643576
0.001276782922
0.001276946177
0.001277133179
0.00127734355
0.001277576594
0.001277804708
0.001278074679
0.001278382673
0.001278721469
0.001279089408
0.001279486406
0.001279912611
0.001280368325
0.001280853913
0.001281369761
0.001281916253
0.001282493766
0.001283102668
0.001283743312
0.001284416037
0.001285121165
0.001285859
0.001286629823
0.001287433893
0.001288271443
0.001289142678
0.001290047774
0.001290986874
0.001291960086
0.00129296748
0.001294009086
0.001295084887
0.001296194819
0.00129733876
0.001298516527
0.001299727864
0.001300972426
0.001302249763
0.001303559295
0.001304900299
0.001306271921
0.001307673191
0.001309102617
0.00131055553
0.001312015863
0.001313459119
0.001314786326
0.00131625166
0.001317808514
0.00131939388
0.001321002623
0.001322632174
0.001324280471
0.001325945495
0.001327625183
0.001329317422
0.001331020038
0.001332730781
0.001334447318
0.001336167221
0.001337887965
0.001339606925
0.001341321372
0.001343028476
0.001344725306
0.001346408834
0.001348075936
0.001349723403
0.001351347943
0.001352946195
0.001354514736
0.001356050095
0.001357548771
0.00135900725
0.001360422027
0.001361789631
0.001363106654
0.001364369789
0.001365575863
0.001366721889
0.001367805118
0.001368823102
0.001369773775
0.001370655538
0.001371467372
0.001372208972
0.001372880912
0.001373484849
0.001374023752
0.001374502142
0.001374926278
0.001375304159
0.001375645181
0.001375959194
0.001376254679
0.001376535725
0.001376797461
0.001377019852
0.001377161376
)
;

boundaryField
{
    base
    {
        type            empty;
    }
    outlet
    {
        type            zeroGradient;
    }
    inlet
    {
        type            fixedValue;
        value           uniform 0.02852007935;
    }
}


// ************************************************************************* //
