/*--------------------------------*- C++ -*----------------------------------*\
| =========                 |                                                 |
| \\      /  F ield         | OpenFOAM: The Open Source CFD Toolbox           |
|  \\    /   O peration     | Version:  v1712                                 |
|   \\  /    A nd           | Web:      www.OpenFOAM.com                      |
|    \\/     M anipulation  |                                                 |
\*---------------------------------------------------------------------------*/
FoamFile
{
    version     2.0;
    format      ascii;
    class       volScalarField;
    location    "0.001";
    object      H2O;
}
// * * * * * * * * * * * * * * * * * * * * * * * * * * * * * * * * * * * * * //

dimensions      [0 0 0 0 0 0 0];


internalField   nonuniform List<scalar> 
1500
(
3.524303071e-48
9.309199583e-48
1.623112096e-47
2.361680301e-47
3.145579627e-47
3.977389811e-47
4.800221162e-47
5.681030036e-47
6.640930937e-47
7.357188925e-47
8.463384481e-47
9.257956519e-47
1.007865426e-46
1.092707828e-46
1.197995796e-46
1.296217056e-46
1.380453959e-46
1.468730658e-46
1.550239884e-46
1.629768273e-46
1.7020135e-46
1.769000767e-46
1.842098229e-46
1.938277531e-46
2.000668512e-46
2.068103368e-46
2.144505162e-46
2.24624247e-46
2.299293838e-46
2.355511185e-46
2.434175716e-46
2.504886034e-46
2.591785024e-46
2.651454528e-46
2.720131809e-46
2.799337114e-46
2.859760516e-46
2.948002589e-46
3.029087705e-46
3.106504771e-46
3.180676111e-46
3.268847186e-46
3.414495967e-46
3.535403718e-46
3.653908351e-46
3.755694843e-46
3.874623744e-46
4.022318807e-46
4.172167035e-46
4.362705711e-46
4.509224822e-46
4.638051636e-46
4.763723947e-46
4.878831273e-46
4.982197223e-46
5.069572394e-46
5.153283289e-46
5.250179132e-46
5.333718548e-46
5.40142114e-46
5.443942823e-46
5.47934683e-46
5.503824957e-46
5.51946506e-46
5.528447723e-46
5.531157051e-46
5.528640037e-46
5.52161476e-46
5.510048492e-46
5.497591236e-46
5.475948783e-46
5.458067894e-46
5.43674493e-46
5.417702693e-46
5.396406282e-46
5.378651169e-46
5.364645604e-46
5.346120928e-46
5.333530411e-46
5.321107981e-46
5.310659368e-46
5.301356658e-46
5.293149777e-46
5.28638744e-46
5.279825257e-46
5.27508575e-46
5.270913943e-46
5.267503488e-46
5.264070124e-46
5.261563389e-46
5.259495437e-46
5.258080833e-46
5.257121553e-46
5.255996908e-46
5.255251228e-46
5.254718422e-46
5.254295831e-46
5.254028616e-46
5.253700173e-46
5.253450697e-46
5.253256553e-46
5.253145318e-46
5.253060333e-46
5.252974755e-46
5.252902285e-46
5.252844761e-46
5.252797303e-46
5.252754537e-46
5.252714412e-46
5.252669476e-46
5.252630824e-46
5.252595192e-46
5.252556917e-46
5.25250515e-46
5.252471656e-46
5.252434732e-46
5.252383871e-46
5.252337021e-46
5.252276465e-46
5.252242562e-46
5.252200577e-46
5.252163396e-46
5.25212485e-46
5.252076556e-46
5.252008342e-46
5.251955858e-46
5.251901856e-46
5.251855079e-46
5.251803535e-46
5.2517344e-46
5.251678968e-46
5.251625804e-46
5.251565901e-46
5.251507788e-46
5.251448065e-46
5.2513798e-46
5.251322712e-46
5.251259953e-46
5.251198549e-46
5.25112943e-46
5.25106265e-46
5.25101048e-46
5.250933582e-46
5.250858701e-46
5.250790327e-46
5.250711818e-46
5.250642588e-46
5.250567847e-46
5.250488392e-46
5.250398632e-46
5.250309867e-46
5.250244145e-46
5.250155968e-46
5.250051926e-46
5.249964358e-46
5.249885027e-46
5.249801864e-46
5.24971858e-46
5.249628623e-46
5.249542552e-46
5.249447445e-46
5.249353053e-46
5.249259969e-46
5.249171055e-46
5.249072923e-46
5.248974037e-46
5.248878839e-46
5.248759387e-46
5.248650104e-46
5.248543377e-46
5.248437701e-46
5.248342147e-46
5.248238998e-46
5.248141918e-46
5.248032859e-46
5.247936299e-46
5.247834323e-46
5.247736847e-46
5.247641492e-46
5.247517604e-46
5.247396647e-46
5.247290095e-46
5.247148148e-46
5.247056519e-46
5.246941405e-46
5.246844214e-46
5.246722074e-46
5.246591103e-46
5.246474377e-46
5.246359473e-46
5.246243656e-46
5.246135125e-46
5.246034205e-46
5.245923335e-46
5.245813744e-46
5.245707265e-46
5.245587467e-46
5.24548103e-46
5.245372525e-46
5.245273682e-46
5.245170036e-46
5.245055167e-46
5.244924293e-46
5.244765098e-46
5.244640068e-46
5.244513853e-46
5.244400198e-46
5.244290403e-46
5.244179835e-46
5.244063403e-46
5.243928189e-46
5.243783451e-46
5.243664656e-46
5.243533767e-46
5.243380744e-46
5.243258363e-46
5.243136069e-46
5.243016671e-46
5.242906146e-46
5.242776294e-46
5.242663633e-46
5.242541646e-46
5.242427886e-46
5.242303044e-46
5.242191471e-46
5.242063758e-46
5.241891836e-46
5.241750845e-46
5.241624333e-46
5.241488452e-46
5.241374161e-46
5.241210344e-46
5.241089786e-46
5.240969828e-46
5.240854442e-46
5.240742289e-46
5.240619351e-46
5.240512842e-46
5.240387446e-46
5.240262839e-46
5.240101696e-46
5.239943226e-46
5.239802426e-46
5.239691196e-46
5.239584691e-46
5.239468456e-46
5.239323288e-46
5.239186645e-46
5.239062567e-46
5.238950471e-46
5.238827328e-46
5.238710251e-46
5.238605275e-46
5.238479734e-46
5.238339592e-46
5.238212991e-46
5.238090576e-46
5.23795394e-46
5.237848221e-46
5.237730955e-46
5.237606298e-46
5.237480414e-46
5.237364845e-46
5.237258331e-46
5.237122478e-46
5.236999531e-46
5.236871147e-46
5.236762151e-46
5.236645359e-46
5.236495419e-46
5.236362009e-46
5.236247788e-46
5.236134619e-46
5.236015965e-46
5.235895961e-46
5.235760028e-46
5.235643343e-46
5.235531925e-46
5.235421413e-46
5.235303584e-46
5.235190178e-46
5.235079006e-46
5.234964641e-46
5.23484761e-46
5.234729231e-46
5.23462098e-46
5.234515803e-46
5.234383161e-46
5.234262651e-46
5.234144541e-46
5.234021314e-46
5.233903574e-46
5.233792136e-46
5.23367582e-46
5.233564856e-46
5.233456415e-46
5.233338168e-46
5.233225689e-46
5.233119259e-46
5.233011238e-46
5.232895126e-46
5.232784009e-46
5.232677179e-46
5.232580531e-46
5.232460152e-46
5.232357757e-46
5.232252657e-46
5.232143775e-46
5.232038759e-46
5.231923891e-46
5.231805313e-46
5.231707761e-46
5.231612047e-46
5.231519929e-46
5.23140385e-46
5.231266643e-46
5.231103166e-46
5.230998221e-46
5.230902383e-46
5.230805849e-46
5.230709624e-46
5.230621348e-46
5.230522982e-46
5.230425989e-46
5.230331203e-46
5.230227991e-46
5.230104581e-46
5.230001948e-46
5.22990526e-46
5.229808941e-46
5.229711478e-46
5.229607584e-46
5.229510893e-46
5.229413385e-46
5.22931944e-46
5.229232091e-46
5.229132762e-46
5.229010728e-46
5.228898384e-46
5.228799288e-46
5.228710692e-46
5.228611423e-46
5.228519539e-46
5.228428765e-46
5.2283434e-46
5.228264012e-46
5.228163141e-46
5.228072303e-46
5.227981704e-46
5.22788162e-46
5.227773304e-46
5.22763271e-46
5.227530096e-46
5.227436804e-46
5.227351655e-46
5.227269689e-46
5.227184499e-46
5.227093408e-46
5.226996128e-46
5.226885437e-46
5.226775546e-46
5.226682257e-46
5.226597583e-46
5.226501322e-46
5.226406053e-46
5.226322162e-46
5.226231886e-46
5.226148554e-46
5.226058244e-46
5.225976988e-46
5.225887387e-46
5.225799976e-46
5.225714475e-46
5.225629587e-46
5.225541977e-46
5.225461425e-46
5.225361767e-46
5.225279626e-46
5.225184311e-46
5.225094157e-46
5.225021675e-46
5.224944382e-46
5.224836274e-46
5.224729301e-46
5.224626416e-46
5.224539397e-46
5.22445425e-46
5.224369605e-46
5.224289828e-46
5.22420986e-46
5.224127385e-46
5.224041629e-46
5.223963185e-46
5.223882444e-46
5.223802252e-46
5.223722846e-46
5.223646406e-46
5.223568059e-46
5.223482471e-46
5.223405994e-46
5.223325626e-46
5.223240897e-46
5.223162218e-46
5.223084463e-46
5.2230085e-46
5.222933578e-46
5.222838561e-46
5.222760454e-46
5.22265957e-46
5.222586899e-46
5.222509703e-46
5.222430099e-46
5.222352839e-46
5.222280623e-46
5.222201875e-46
5.222129247e-46
5.222054553e-46
5.221982004e-46
5.221905594e-46
5.221826555e-46
5.221754785e-46
5.221674369e-46
5.221593888e-46
5.221517044e-46
5.221440725e-46
5.221364383e-46
5.221288502e-46
5.221213728e-46
5.221132855e-46
5.221059603e-46
5.220987589e-46
5.220916421e-46
5.220837629e-46
5.22076456e-46
5.220695065e-46
5.220624179e-46
5.22055236e-46
5.220477775e-46
5.220405863e-46
5.220337115e-46
5.220268483e-46
5.220207593e-46
5.220137432e-46
5.220062809e-46
5.219989144e-46
5.219898091e-46
5.219813094e-46
5.219729856e-46
5.219655093e-46
5.219582534e-46
5.219519087e-46
5.219459712e-46
5.21939028e-46
5.219321783e-46
5.219251648e-46
5.219164363e-46
5.21907741e-46
5.218993883e-46
5.218916879e-46
5.218840774e-46
5.218778569e-46
5.218724539e-46
5.218671743e-46
5.218608728e-46
5.218543358e-46
5.218470223e-46
5.218407521e-46
5.218336043e-46
5.218269661e-46
5.218188976e-46
5.218124641e-46
5.218046304e-46
5.217977449e-46
5.217908612e-46
5.217840521e-46
5.21778026e-46
5.217725494e-46
5.217665937e-46
5.21758994e-46
5.217524776e-46
5.217450694e-46
5.217385144e-46
5.217321719e-46
5.217249714e-46
5.217183047e-46
5.217121167e-46
5.217059082e-46
5.216993558e-46
5.216929248e-46
5.216862911e-46
5.216796922e-46
5.216718572e-46
5.216653364e-46
5.21659382e-46
5.216533846e-46
5.216473585e-46
5.216413515e-46
5.216352733e-46
5.216287557e-46
5.216221613e-46
5.216163984e-46
5.216105041e-46
5.216046502e-46
5.21598541e-46
5.21592414e-46
5.215861652e-46
5.215798518e-46
5.215737534e-46
5.215676657e-46
5.21561707e-46
5.215551668e-46
5.21549398e-46
5.2154345e-46
5.215377142e-46
5.215317677e-46
5.215254577e-46
5.215190002e-46
5.215130741e-46
5.21506742e-46
5.215004723e-46
5.214941965e-46
5.214887097e-46
5.214836107e-46
5.214785677e-46
5.214726482e-46
5.214663843e-46
5.214599991e-46
5.214536705e-46
5.21447521e-46
5.214400616e-46
5.214339357e-46
5.21428093e-46
5.214221702e-46
5.214168222e-46
5.214115197e-46
5.21406298e-46
5.214009439e-46
5.213962304e-46
5.213920996e-46
5.213891954e-46
5.21388166e-46
5.21390459e-46
5.213983582e-46
5.214156761e-46
5.214482252e-46
5.215129374e-46
5.216135864e-46
5.218142561e-46
5.221708411e-46
5.227819454e-46
5.238307373e-46
5.257079259e-46
5.287588474e-46
5.341233132e-46
5.432110868e-46
5.586706343e-46
5.862512477e-46
6.312050912e-46
7.055540696e-46
8.394770896e-46
1.096603219e-45
1.478130698e-45
2.212180358e-45
3.357021988e-45
5.391554349e-45
8.936324752e-45
1.459797388e-44
2.503509374e-44
4.11212288e-44
6.899236488e-44
1.125805629e-43
1.878985039e-43
3.149237346e-43
5.463776959e-43
9.941538977e-43
1.649351134e-42
2.816929064e-42
4.63161845e-42
7.643404065e-42
1.269454491e-41
2.089984458e-41
3.3824652e-41
5.467312135e-41
9.052640212e-41
1.511369822e-40
2.490397148e-40
4.271444651e-40
7.366937375e-40
1.337259572e-39
2.195113923e-39
3.632231861e-39
5.999242001e-39
1.006360471e-38
1.670140024e-38
2.829932733e-38
4.810309736e-38
8.055441142e-38
1.350349362e-37
2.290074572e-37
4.017626345e-37
6.896246076e-37
1.185769031e-36
2.019431347e-36
3.410987225e-36
5.763387588e-36
1.003499603e-35
1.689610717e-35
2.86455412e-35
4.898903876e-35
8.372179414e-35
1.452028728e-34
2.418640487e-34
3.982677041e-34
6.418104939e-34
1.070989016e-33
1.792931988e-33
3.145067269e-33
5.296784968e-33
8.505917818e-33
1.34140859e-32
2.359621425e-32
3.824571728e-32
6.257963868e-32
1.045110591e-31
1.857839549e-31
3.286603317e-31
5.85145461e-31
9.923744895e-31
1.692422953e-30
2.819063296e-30
4.433904094e-30
7.60258463e-30
1.33782799e-29
2.370344033e-29
4.216451278e-29
7.52740509e-29
1.348535672e-28
2.424508375e-28
4.375040982e-28
7.924788419e-28
1.441052895e-27
2.630815836e-27
4.822192099e-27
8.874849775e-27
1.640030378e-26
3.043134501e-26
5.669752077e-26
1.060637756e-25
1.992090761e-25
3.756323477e-25
7.110482311e-25
1.351117011e-24
2.577159483e-24
4.935187039e-24
9.491134686e-24
1.832001225e-23
3.537662361e-23
6.872134178e-23
1.336536646e-22
2.611809179e-22
5.102922545e-22
9.964661046e-22
1.959161741e-21
3.868442596e-21
7.640113198e-21
1.512840403e-20
2.998391965e-20
5.969347476e-20
1.190169668e-19
2.383016577e-19
4.767193149e-19
9.542447671e-19
1.927092586e-18
3.871171685e-18
7.830875165e-18
1.585104981e-17
3.203217145e-17
6.487299542e-17
1.317805168e-16
2.675735516e-16
5.454721565e-16
1.102834394e-15
2.229735009e-15
4.505706642e-15
9.002566843e-15
1.796027749e-14
3.562011292e-14
6.963791285e-14
1.362132646e-13
2.698091601e-13
5.262547751e-13
1.005524036e-12
1.99656485e-12
4.048037098e-12
8.225986617e-12
1.67152637e-11
3.395044786e-11
6.891576648e-11
1.397904216e-10
2.833161129e-10
5.736598394e-10
1.160343536e-09
2.34440558e-09
4.731110872e-09
9.535710701e-09
1.919472649e-08
3.858626196e-08
7.746231224e-08
1.552886875e-07
3.108584498e-07
6.213456626e-07
1.239976584e-06
2.470276347e-06
4.903144851e-06
9.58346487e-06
1.842103109e-05
3.486153595e-05
5.790793193e-05
9.738086319e-05
0.0001744259888
0.0003145867072
0.0005598282209
0.0009791914596
0.001676361039
0.0026994451
0.003963760955
0.005837002318
0.008509097299
0.0111417562
0.01473209909
0.01810390852
0.0222324323
0.02677719099
0.03161507498
0.03674908892
0.04219978224
0.04799575252
0.05416415341
0.06072275333
0.06767378041
0.07499543743
0.08261938939
0.09040356647
0.09821643579
0.1055274587
0.1126863083
0.1197469681
0.1268982905
0.1339114807
0.1405405436
0.1467581495
0.1525478499
0.1578982288
0.1628058521
0.1672801293
0.1713378285
0.1746749461
0.1776934938
0.1805665066
0.1831334528
0.1854261243
0.1872967456
0.1889447481
0.1904372247
0.1918393162
0.1930914433
0.1942130246
0.1952218141
0.1961333607
0.1969611923
0.1977170129
0.1984109022
0.1990515073
0.1996462235
0.2002013587
0.200722286
0.2012135773
0.2016791233
0.2021222386
0.2025457548
0.2029521036
0.2033433896
0.203721456
0.2040879451
0.204444369
0.2047920541
0.2051038249
0.205432541
0.2057286128
0.2060396428
0.2063435451
0.2066409708
0.2069324438
0.207218361
0.2074990494
0.2077747956
0.2080458599
0.2083124839
0.2085748975
0.2088333267
0.2090880036
0.2093391801
0.2095871491
0.2098322059
0.2100541798
0.210289987
0.2105223948
0.2107515009
0.2109774214
0.2112002583
0.2114201023
0.2116370367
0.2118511384
0.2120624793
0.2122711271
0.2124771461
0.2126805972
0.2128815391
0.2130800279
0.2132761174
0.2134698592
0.2136613036
0.2138504988
0.2140374912
0.2142223262
0.2144050474
0.2145856969
0.2147643159
0.2149409441
0.2151156203
0.2152883817
0.2154592649
0.2156283053
0.2157955372
0.215960994
0.2161247083
0.2162867118
0.2164470351
0.2166057083
0.2167627607
0.2169182205
0.2170721156
0.2172244727
0.2173753184
0.2175246781
0.2176725768
0.217819039
0.2179640883
0.218107748
0.2182500407
0.2183909884
0.2185306128
0.2186689348
0.2188059749
0.2189417534
0.2190762897
0.219209603
0.2193417121
0.2194726352
0.2196023903
0.2197309949
0.2198584662
0.2199848208
0.2201100752
0.2202342454
0.2203573472
0.2204793959
0.2206004066
0.2207203942
0.2208393731
0.2209573574
0.2210743611
0.2211903978
0.2213054808
0.2214196232
0.221532838
0.2216451376
0.2217565345
0.2218670408
0.2219766683
0.2220854287
0.2221933336
0.2223003941
0.2224066212
0.2225120258
0.2226166186
0.2227204098
0.2228234098
0.2229256287
0.2230270762
0.2231277621
0.2232276958
0.2233268868
0.2234253441
0.2235230767
0.2236200936
0.2237164033
0.2238120144
0.2239069352
0.2240011738
0.2240947385
0.2241876369
0.224279877
0.2243714664
0.2244624124
0.2245527225
0.2246424039
0.2247314636
0.2248199086
0.2249077457
0.2249949816
0.2250816229
0.2251676761
0.2252531474
0.2253380432
0.2254223694
0.2255061323
0.2255893377
0.2256719912
0.2257540987
0.2258356658
0.2259166979
0.2259972004
0.2260771787
0.226156638
0.2262355834
0.2263140199
0.2263919526
0.2264693862
0.2265463256
0.2266227755
0.2266987405
0.2267742252
0.226849234
0.2269237714
0.2269978417
0.2270714492
0.2271445981
0.2272172926
0.2272895366
0.2273613343
0.2274326896
0.2275036063
0.2275740884
0.2276441395
0.2277137635
0.2277829639
0.2278517444
0.2279201087
0.2279880602
0.2280556023
0.2281227385
0.2281894723
0.2282558069
0.2283217456
0.2283872917
0.2284524485
0.2285172191
0.2285816065
0.2286456141
0.2287092448
0.2287725016
0.2288353877
0.2288979059
0.2289600592
0.2290218505
0.2290832827
0.2291443588
0.2292050814
0.2292654535
0.2293254778
0.229385157
0.229444494
0.2295034914
0.229562152
0.2296204783
0.2296784732
0.2297361391
0.2297934788
0.2298504947
0.2299071896
0.229963566
0.2300196264
0.2300753733
0.2301308092
0.2301859367
0.2302407582
0.2302952762
0.2303494932
0.2304034115
0.2304570336
0.2305103619
0.2305633988
0.2306161466
0.2306686077
0.2307207844
0.2307726791
0.230824294
0.2308756314
0.2309266937
0.230977483
0.2310280016
0.2310782518
0.2311282356
0.2311779553
0.2312274131
0.231276611
0.2313255513
0.231374236
0.2314226673
0.2314708471
0.2315187775
0.2315664605
0.2316138982
0.2316610925
0.2317080453
0.2317547586
0.2318012344
0.2318474744
0.2318934806
0.2319392547
0.2319847986
0.2320301142
0.232075203
0.2321200669
0.2321647077
0.2322091269
0.2322533262
0.2322973073
0.2323410717
0.2323846211
0.2324279571
0.232471081
0.2325139945
0.232556699
0.2325991959
0.2326414867
0.2326835728
0.2327254555
0.2327671362
0.2328086162
0.2328498967
0.2328909792
0.2329318647
0.2329725545
0.2330130498
0.2330533518
0.2330934616
0.2331333804
0.2331731091
0.2332126489
0.2332520009
0.233291166
0.2333301454
0.2333689398
0.2334075504
0.2334459781
0.2334842237
0.2335222883
0.2335601726
0.2335978776
0.233635404
0.2336727528
0.2337099248
0.2337469207
0.2337837413
0.2338203874
0.2338568598
0.2338931592
0.2339292863
0.2339652418
0.2340010265
0.2340366411
0.2340720862
0.2341073625
0.2341424706
0.2341774113
0.2342121851
0.2342467927
0.2342812348
0.2343155119
0.2343496246
0.2343835737
0.2344173596
0.2344509829
0.2344844444
0.2345177445
0.2345508838
0.2345838629
0.2346166825
0.234649343
0.2346818451
0.2347141893
0.2347463762
0.2347784064
0.2348102804
0.2348419988
0.2348735622
0.2349049712
0.2349362262
0.234967328
0.234998277
0.2350290738
0.2350597191
0.2350902133
0.2351205571
0.2351507511
0.2351807958
0.2352106918
0.2352404398
0.2352700402
0.2352994938
0.235328801
0.2353579626
0.235386979
0.235415851
0.2354445791
0.235473164
0.2355016062
0.2355299064
0.2355580653
0.2355860833
0.2356139613
0.2356416998
0.2356692994
0.2356967609
0.2357240848
0.2357512718
0.2357783226
0.2358052378
0.235832018
0.235858664
0.2358851764
0.2359115558
0.235937803
0.2359639186
0.2359899033
0.2360157578
0.2360414826
0.2360670786
0.2360925464
0.2361178867
0.2361431001
0.2361681874
0.2361931492
0.2362179862
0.2362426991
0.2362672886
0.2362917553
0.2363161
0.2363403234
0.236364426
0.2363884086
0.236412272
0.2364360167
0.2364596436
0.2364831532
0.2365065463
0.2365298236
0.2365529858
0.2365760337
0.236598968
0.2366217895
0.236644499
0.2366670974
0.2366895857
0.2367119648
0.2367342359
0.2367564002
0.2367784592
0.2368004147
0.2368222687
0.2368440239
0.2368656834
0.2368872517
0.2369087341
0.2369301383
0.2369514745
0.2369727571
0.2369940071
0.2370152551
0.2370365484
0.2370579619
0.2370796205
0.2371017418
0.2371207487
0.2371392992
0.2371578369
0.2371771477
0.2371973606
0.2372175037
0.2372376127
0.2372577252
0.2372778924
0.2372981932
0.2373187573
0.2373398104
0.2373578716
0.2373755244
0.2373931087
0.2374114716
0.2374309024
0.2374504359
0.2374702143
0.2374904675
0.2375077944
0.237524701
0.2375417924
0.237560046
0.2375790024
0.2375982404
0.2376180118
0.2376349194
0.2376522657
0.2376689286
0.2376857303
0.2377018867
0.2377187189
0.2377354065
0.2377526922
0.2377702738
0.2377880682
0.237806162
0.2378247961
0.2378407359
0.237856384
0.2378723928
0.2378902137
0.2379056912
0.237921439
0.2379367512
0.2379520785
0.2379672591
0.2379826383
0.2379985023
0.238014983
0.2380315879
0.2380485674
0.2380629544
0.2380775326
0.2380922754
0.2381073358
0.2381230185
0.2381388238
0.238154726
0.2381708922
0.2381876182
0.2382019701
0.2382163374
0.2382306277
0.238244783
0.2382586379
0.2382726985
0.2382863117
0.2382998509
0.2383141778
0.2383284788
0.2383432925
0.2383584862
0.2383741804
0.2383874469
0.2384004142
0.2384132964
0.238426797
0.2384414658
0.2384565151
0.2384691296
0.2384818543
0.2384948259
0.2385080413
0.2385217909
0.2385356693
0.238549836
0.2385645386
0.2385769517
0.2385891062
0.2386011581
0.2386138866
0.2386277336
0.2386420314
0.2386540593
0.2386658265
0.238677643
0.2386902998
0.2387042483
0.2387159596
0.2387279883
0.2387395291
0.2387509662
0.2387623157
0.2387741683
0.2387873608
0.2387986549
0.2388099108
0.2388215137
0.2388326157
0.2388438446
0.238854555
0.2388659952
0.2388772027
0.2388879094
0.2388988994
0.2389095684
0.2389203495
0.2389306608
0.2389414598
0.2389516179
0.2389622892
0.2389723185
0.2389827589
0.2389926918
0.2390029762
0.2390127939
0.2390229184
0.2390326733
0.2390426574
0.2390523049
0.2390620111
0.2390714442
0.2390811849
0.2390907119
0.2391000398
0.2391097711
0.2391184976
0.2391280077
0.2391367675
0.2391458437
0.2391543734
0.239163353
0.2391715013
0.2391801028
0.2391883618
0.2391972408
0.2392063062
0.2392153985
0.2392244928
0.239233571
0.2392426273
0.2392516637
0.2392606847
0.2392696947
0.2392786973
0.2392876945
0.2392966848
0.2393056648
0.2393146313
0.2393235621
0.2393323383
0.2393406502
0.2393486751
0.2393565921
0.2393646749
0.2393733087
0.2393804638
0.2393878833
0.2393956289
0.239402625
0.2394102037
0.2394171374
0.2394253678
0.2394323225
0.2394406037
0.2394487676
0.2394568566
0.2394649105
0.2394729493
0.2394809838
0.239489021
0.2394970662
0.2395051237
0.2395131978
0.2395212926
0.2395294122
0.239537561
0.2395457436
0.2395539648
0.2395622299
0.2395705442
0.2395789133
0.2395873433
0.2395958404
0.239604411
0.2396130618
0.2396218001
0.2396306332
0.2396395692
0.2396486165
0.2396577843
0.2396670829
0.2396765231
0.2396861166
0.2396958776
0.239705833
0.2397160469
0.2397265096
0.2397358762
0.2397442966
0.2397544473
0.2397651792
0.2397760375
0.2397870621
0.239798271
0.2398096725
0.2398212618
0.2398330282
0.2398451093
0.239854672
0.2398657925
0.2398778547
0.2398901847
0.2399026684
0.2399152907
0.2399280409
0.2399409106
0.2399538898
0.239966967
0.2399801287
0.2399933597
0.2400066431
0.2400199602
0.2400332903
0.240046611
0.2400598978
0.2400731241
0.2400862612
0.2400992783
0.2401121423
0.2401248179
0.2401372675
0.240149451
0.240161326
0.240172848
0.2401839697
0.2401946417
0.2402048123
0.2402144276
0.2402234317
0.2402317667
0.2402393733
0.2402461912
0.2402521596
0.2402572189
0.2402613136
0.2402643933
0.2402664224
0.2402673551
0.2402674486
0.2402666703
0.2402642264
0.2402598999
0.2402539215
0.2402462498
0.2402368283
0.2402255891
0.2402124603
0.2401973688
0.2401802415
0.240161006
0.2401395911
0.2401159273
0.2400899473
0.2400615863
0.2400307823
0.2399974765
0.2399616137
0.2399231427
0.2398820165
0.2398381929
0.2397916342
0.2397423084
0.2396901888
0.2396352546
0.2395774909
0.2395168896
0.2394534492
0.239387175
0.2393180802
0.2392461858
0.2391715212
0.2390941253
0.2390140476
0.2389313487
0.238846103
0.2387584
0.238668347
0.2385760724
0.2384817279
0.2383854901
0.2382875571
0.2381881372
0.238087426
0.2379855733
0.2378826573
0.2377786976
0.2376737697
0.2375683018
0.2374636709
0.2373633152
0.2372748483
0.2372142308
)
;

boundaryField
{
    base
    {
        type            empty;
    }
    outlet
    {
        type            zeroGradient;
    }
    inlet
    {
        type            fixedValue;
        value           uniform 0;
    }
}


// ************************************************************************* //
