/*--------------------------------*- C++ -*----------------------------------*\
| =========                 |                                                 |
| \\      /  F ield         | OpenFOAM: The Open Source CFD Toolbox           |
|  \\    /   O peration     | Version:  v1712                                 |
|   \\  /    A nd           | Web:      www.OpenFOAM.com                      |
|    \\/     M anipulation  |                                                 |
\*---------------------------------------------------------------------------*/
FoamFile
{
    version     2.0;
    format      ascii;
    class       volScalarField;
    location    "0.001";
    object      H2O2;
}
// * * * * * * * * * * * * * * * * * * * * * * * * * * * * * * * * * * * * * //

dimensions      [0 0 0 0 0 0 0];


internalField   nonuniform List<scalar> 
1500
(
1.736246324e-51
4.085564428e-51
6.747568021e-51
9.56739082e-51
1.264774853e-50
1.603888027e-50
1.956676583e-50
2.353594022e-50
2.813185168e-50
3.16763467e-50
3.751907688e-50
4.186238995e-50
4.657573108e-50
5.164452201e-50
5.837806071e-50
6.486385537e-50
7.067100708e-50
7.699555716e-50
8.302008799e-50
8.910634449e-50
9.477316924e-50
1.001579521e-49
1.063206783e-49
1.149210698e-49
1.204948967e-49
1.26765824e-49
1.343032487e-49
1.446947748e-49
1.50129878e-49
1.561765277e-49
1.650891828e-49
1.733039408e-49
1.837305664e-49
1.908810754e-49
1.992673802e-49
2.090383894e-49
2.16503504e-49
2.275164098e-49
2.376323219e-49
2.472475029e-49
2.564293359e-49
2.673076651e-49
2.857115797e-49
3.009531337e-49
3.158282664e-49
3.28373249e-49
3.432478077e-49
3.621465981e-49
3.814064547e-49
4.061939869e-49
4.250868628e-49
4.41785654e-49
4.58268698e-49
4.734353097e-49
4.871374495e-49
4.987683653e-49
5.099618958e-49
5.234221017e-49
5.354172327e-49
5.453290199e-49
5.51702096e-49
5.572411941e-49
5.613264111e-49
5.642473623e-49
5.663668059e-49
5.676465988e-49
5.682166009e-49
5.68209275e-49
5.676622344e-49
5.668914551e-49
5.652163794e-49
5.637319345e-49
5.618502679e-49
5.601294757e-49
5.581459035e-49
5.564783293e-49
5.551564291e-49
5.533740838e-49
5.521610264e-49
5.509584458e-49
5.499454628e-49
5.490416706e-49
5.48242084e-49
5.475838493e-49
5.469437803e-49
5.464832893e-49
5.460777747e-49
5.457466545e-49
5.454120461e-49
5.451685056e-49
5.449679874e-49
5.448326738e-49
5.44741812e-49
5.44632333e-49
5.44560121e-49
5.445086982e-49
5.444678618e-49
5.444419735e-49
5.444088826e-49
5.443831953e-49
5.443628563e-49
5.443510034e-49
5.443414581e-49
5.443313319e-49
5.443224493e-49
5.44315081e-49
5.443087472e-49
5.443028123e-49
5.442970385e-49
5.442903355e-49
5.442844874e-49
5.442790091e-49
5.442730751e-49
5.442648523e-49
5.442596148e-49
5.442538092e-49
5.442456792e-49
5.44238213e-49
5.442285882e-49
5.442233256e-49
5.442167745e-49
5.442110497e-49
5.442051347e-49
5.441976207e-49
5.441869014e-49
5.441787829e-49
5.441705205e-49
5.441634109e-49
5.441555595e-49
5.441449531e-49
5.441365476e-49
5.441285317e-49
5.441194534e-49
5.441107234e-49
5.441017459e-49
5.440914429e-49
5.440828942e-49
5.440735687e-49
5.440644284e-49
5.4405413e-49
5.440443086e-49
5.440367035e-49
5.440253385e-49
5.440142948e-49
5.440043017e-49
5.439927863e-49
5.439827041e-49
5.439718042e-49
5.439602061e-49
5.439471941e-49
5.439344499e-49
5.439250591e-49
5.439123916e-49
5.43897354e-49
5.438848365e-49
5.438735696e-49
5.438617607e-49
5.438499646e-49
5.438371738e-49
5.438250185e-49
5.43811555e-49
5.437982298e-49
5.437851106e-49
5.437725877e-49
5.437588138e-49
5.437449096e-49
5.437315541e-49
5.43714771e-49
5.436994974e-49
5.436845948e-49
5.436698916e-49
5.436565956e-49
5.436422301e-49
5.436287419e-49
5.436135534e-49
5.436001278e-49
5.43585968e-49
5.435725353e-49
5.435594737e-49
5.435421873e-49
5.435253353e-49
5.435105131e-49
5.434907123e-49
5.434781323e-49
5.434622421e-49
5.434488181e-49
5.434317838e-49
5.434134581e-49
5.433972084e-49
5.433812715e-49
5.433652343e-49
5.433502296e-49
5.433362957e-49
5.433208851e-49
5.433056924e-49
5.432909482e-49
5.432743471e-49
5.432596132e-49
5.432445897e-49
5.432310064e-49
5.432168083e-49
5.432009769e-49
5.431828346e-49
5.431606196e-49
5.431433232e-49
5.431259232e-49
5.43110373e-49
5.430954221e-49
5.430803533e-49
5.430644683e-49
5.430458735e-49
5.430260077e-49
5.430098212e-49
5.429918564e-49
5.429708119e-49
5.429541678e-49
5.429375192e-49
5.429212378e-49
5.429062166e-49
5.428885044e-49
5.428731919e-49
5.428566019e-49
5.428412154e-49
5.428242208e-49
5.428091912e-49
5.42791865e-49
5.427682517e-49
5.427489467e-49
5.427316849e-49
5.427131436e-49
5.426976724e-49
5.426752745e-49
5.426589163e-49
5.426426136e-49
5.426269399e-49
5.426117103e-49
5.425949979e-49
5.425805728e-49
5.425634632e-49
5.425466093e-49
5.42524257e-49
5.42502313e-49
5.424831194e-49
5.424681389e-49
5.424537096e-49
5.4243795e-49
5.424179183e-49
5.423990481e-49
5.423820135e-49
5.42366734e-49
5.423499741e-49
5.423341044e-49
5.423199045e-49
5.423026045e-49
5.422832209e-49
5.422657521e-49
5.422489652e-49
5.42230214e-49
5.422158055e-49
5.421997056e-49
5.421825846e-49
5.42165262e-49
5.421494884e-49
5.421349704e-49
5.421163289e-49
5.420993725e-49
5.420816996e-49
5.420668421e-49
5.420508834e-49
5.420299862e-49
5.420116179e-49
5.419960087e-49
5.419805342e-49
5.41964246e-49
5.419478044e-49
5.419290266e-49
5.419129896e-49
5.418976866e-49
5.418825655e-49
5.41866333e-49
5.418507523e-49
5.418354962e-49
5.418197657e-49
5.418036362e-49
5.417872921e-49
5.417724649e-49
5.417581341e-49
5.417397722e-49
5.417231381e-49
5.417068237e-49
5.416897758e-49
5.416735337e-49
5.416581982e-49
5.416421313e-49
5.416268241e-49
5.416119173e-49
5.415955574e-49
5.415800259e-49
5.415653389e-49
5.415505256e-49
5.415344489e-49
5.415191357e-49
5.415043893e-49
5.414910922e-49
5.414744573e-49
5.414603587e-49
5.414458696e-49
5.414308386e-49
5.414163435e-49
5.414003743e-49
5.413839374e-49
5.413705516e-49
5.413574458e-49
5.41344852e-49
5.413287574e-49
5.413093983e-49
5.412862357e-49
5.412717182e-49
5.412585634e-49
5.412452644e-49
5.412319405e-49
5.412197274e-49
5.412062074e-49
5.411927412e-49
5.411795796e-49
5.41165325e-49
5.411479231e-49
5.411336139e-49
5.411201986e-49
5.411068517e-49
5.410932838e-49
5.410788053e-49
5.410653675e-49
5.410518597e-49
5.410388082e-49
5.410267212e-49
5.410129021e-49
5.409956399e-49
5.409799345e-49
5.40966181e-49
5.409539846e-49
5.409401407e-49
5.409273623e-49
5.409147153e-49
5.409028713e-49
5.408919571e-49
5.408778605e-49
5.408653033e-49
5.408527868e-49
5.408388374e-49
5.408236167e-49
5.408036128e-49
5.40789181e-49
5.40776178e-49
5.407643662e-49
5.407530478e-49
5.407412356e-49
5.407285981e-49
5.407149913e-49
5.406994289e-49
5.406839035e-49
5.406709459e-49
5.40659211e-49
5.406458119e-49
5.406324916e-49
5.406208318e-49
5.406082477e-49
5.405966578e-49
5.405840836e-49
5.405727882e-49
5.405603002e-49
5.405481011e-49
5.405361961e-49
5.40524402e-49
5.405121806e-49
5.405010565e-49
5.404869496e-49
5.404755387e-49
5.404621823e-49
5.404496138e-49
5.404396843e-49
5.404290646e-49
5.404138365e-49
5.403986676e-49
5.403841673e-49
5.403720135e-49
5.40360153e-49
5.403483533e-49
5.40337231e-49
5.403260905e-49
5.403145382e-49
5.403025368e-49
5.402915898e-49
5.402803142e-49
5.402691482e-49
5.402580847e-49
5.402474202e-49
5.402364778e-49
5.402244849e-49
5.40213822e-49
5.402025453e-49
5.401906305e-49
5.401796125e-49
5.401687604e-49
5.401581876e-49
5.401477524e-49
5.401343038e-49
5.401233549e-49
5.40109131e-49
5.400989877e-49
5.400881532e-49
5.400769925e-49
5.400661644e-49
5.400561e-49
5.400450846e-49
5.400349587e-49
5.400245137e-49
5.400143575e-49
5.400037103e-49
5.39992659e-49
5.399826924e-49
5.399714036e-49
5.399601033e-49
5.399493611e-49
5.399386983e-49
5.399280643e-49
5.399174766e-49
5.399070435e-49
5.398957109e-49
5.398854894e-49
5.398754584e-49
5.398655294e-49
5.398545526e-49
5.398443939e-49
5.39834729e-49
5.398248648e-49
5.398148829e-49
5.398044515e-49
5.3979444e-49
5.397848967e-49
5.397753419e-49
5.397669465e-49
5.397573059e-49
5.397469518e-49
5.397367405e-49
5.39723899e-49
5.397119334e-49
5.397002843e-49
5.396898829e-49
5.396797978e-49
5.396710942e-49
5.396629298e-49
5.396533488e-49
5.396438874e-49
5.396341618e-49
5.396219261e-49
5.396097126e-49
5.395979441e-49
5.395872196e-49
5.395766477e-49
5.395680782e-49
5.395607136e-49
5.395534914e-49
5.395448388e-49
5.395358451e-49
5.395256939e-49
5.395170288e-49
5.395070925e-49
5.394978534e-49
5.394865703e-49
5.394776861e-49
5.394667469e-49
5.394572045e-49
5.394476411e-49
5.394382682e-49
5.3943002e-49
5.394225485e-49
5.394143913e-49
5.39403788e-49
5.393947306e-49
5.393844272e-49
5.393753545e-49
5.393665907e-49
5.39356617e-49
5.393474127e-49
5.393389062e-49
5.393303355e-49
5.393212581e-49
5.393123654e-49
5.393031626e-49
5.392939895e-49
5.392830915e-49
5.392741365e-49
5.392659603e-49
5.392577148e-49
5.392494249e-49
5.392411486e-49
5.392327425e-49
5.392237427e-49
5.392146324e-49
5.392067048e-49
5.391985826e-49
5.391905236e-49
5.391821182e-49
5.391736773e-49
5.391650723e-49
5.391563669e-49
5.391479783e-49
5.391395946e-49
5.391314055e-49
5.391224139e-49
5.391145048e-49
5.391063503e-49
5.39098496e-49
5.390903263e-49
5.390816411e-49
5.390726908e-49
5.390645219e-49
5.390558483e-49
5.390472292e-49
5.390386226e-49
5.39031185e-49
5.390242824e-49
5.390174614e-49
5.390093778e-49
5.390008056e-49
5.389920532e-49
5.389833444e-49
5.389748971e-49
5.389645085e-49
5.389561097e-49
5.389481182e-49
5.389399725e-49
5.389325749e-49
5.389251588e-49
5.38917685e-49
5.38909677e-49
5.389020214e-49
5.388941508e-49
5.388864413e-49
5.388784515e-49
5.388708419e-49
5.388632162e-49
5.388556087e-49
5.388480509e-49
5.388398777e-49
5.388326948e-49
5.388248035e-49
5.388170338e-49
5.388093465e-49
5.388017475e-49
5.387939686e-49
5.387865972e-49
5.387790409e-49
5.387715878e-49
5.387642711e-49
5.387566471e-49
5.387492711e-49
5.387421612e-49
5.387347608e-49
5.387266385e-49
5.387195623e-49
5.387118692e-49
5.387049053e-49
5.38697686e-49
5.386904081e-49
5.38683448e-49
5.386759413e-49
5.386690248e-49
5.386617621e-49
5.386549446e-49
5.386479935e-49
5.386411351e-49
5.386338954e-49
5.386259914e-49
5.386192594e-49
5.386122985e-49
5.386060914e-49
5.386003691e-49
5.385954807e-49
5.385923709e-49
5.385927127e-49
5.385996955e-49
5.386210671e-49
5.386726654e-49
5.387833276e-49
5.390464607e-49
5.396359979e-49
5.411409852e-49
5.438593473e-49
5.49587563e-49
5.615475284e-49
5.880120304e-49
6.440917261e-49
7.73683501e-49
1.067506193e-48
1.701834794e-48
3.122915081e-48
6.445652195e-48
1.484433089e-47
3.364531831e-47
7.6549339e-47
1.711292017e-46
3.76464154e-46
8.298262529e-46
1.917520386e-45
4.184560069e-45
9.289068591e-45
2.095743837e-44
4.691160507e-44
1.073536166e-43
2.297800961e-43
4.803372477e-43
9.702439019e-43
2.070285888e-42
4.414394605e-42
1.002141031e-41
2.114321775e-41
4.160358596e-41
7.980103187e-41
1.822180799e-40
3.686170884e-40
7.619165739e-40
1.611576347e-39
3.755936545e-39
8.754666598e-39
2.074367206e-38
4.537503406e-38
9.966578453e-38
2.117034471e-37
4.17358068e-37
9.567198968e-37
2.267350939e-36
5.390576936e-36
1.281589423e-35
3.046484817e-35
7.239851724e-35
1.719843691e-34
4.083509632e-34
9.689962294e-34
2.297814813e-33
5.444734834e-33
1.28906516e-32
3.049152192e-32
7.205445103e-32
1.700955112e-31
4.010972479e-31
9.447296939e-31
2.222524509e-30
5.222181838e-30
1.225516008e-29
2.872519962e-29
6.725781823e-29
1.573688108e-28
3.681793275e-28
8.606127691e-28
2.000766992e-27
4.6643178e-27
1.082967805e-26
2.517926646e-26
5.820604236e-26
1.337568711e-25
3.087982091e-25
7.136905887e-25
1.642182614e-24
3.774674728e-24
8.646104301e-24
1.983922687e-23
4.540875439e-23
1.041107794e-22
2.373960764e-22
5.394543011e-22
1.235670185e-21
2.801627496e-21
6.384143978e-21
1.450918712e-20
3.281102398e-20
7.417063472e-20
1.677978976e-19
3.78456623e-19
8.556921558e-19
1.910293998e-18
4.254667119e-18
9.450711066e-18
2.065369168e-17
4.495941473e-17
9.699293308e-17
2.054270436e-16
4.350735399e-16
9.354772392e-16
1.975484014e-15
4.069349329e-15
8.774244416e-15
1.939328496e-14
4.295059113e-14
9.50496724e-14
2.100979185e-13
4.638032561e-13
1.022456226e-12
2.250680382e-12
4.946568329e-12
1.085383437e-11
2.377523406e-11
5.198856433e-11
1.134793698e-10
2.472527466e-10
5.377413044e-10
1.167370664e-09
2.529539884e-09
5.470944137e-09
1.181004439e-08
2.54432104e-08
5.469582065e-08
1.17037135e-07
2.456700927e-07
5.049171204e-07
1.016822828e-06
1.748594576e-06
3.036146076e-06
5.634345897e-06
1.040920018e-05
1.853668138e-05
3.13639054e-05
4.975613159e-05
7.126113135e-05
9.0685522e-05
0.0001107032624
0.0001288004224
0.0001375501233
0.0001392799436
0.0001340481833
0.0001215186786
0.0001043584414
8.560426436e-05
6.743294881e-05
5.129955086e-05
3.794292999e-05
2.752710143e-05
1.983350895e-05
1.44419835e-05
1.086883896e-05
8.657541592e-06
7.427244692e-06
6.874175735e-06
6.770188843e-06
6.931165671e-06
7.271016432e-06
7.748385121e-06
8.3081204e-06
8.89827972e-06
9.493734401e-06
1.007603841e-05
1.063050108e-05
1.114533657e-05
1.161213557e-05
1.202616791e-05
1.234870883e-05
1.261743995e-05
1.283896284e-05
1.299492174e-05
1.308965705e-05
1.312695846e-05
1.311838732e-05
1.306569468e-05
1.296591188e-05
1.282885106e-05
1.266024998e-05
1.246544462e-05
1.224932649e-05
1.201632841e-05
1.177041405e-05
1.151507881e-05
1.125336382e-05
1.098787994e-05
1.072083994e-05
1.045409342e-05
1.018916456e-05
9.927289256e-06
9.66945022e-06
9.416409705e-06
9.168736742e-06
8.926829761e-06
8.6909304e-06
8.461117293e-06
8.237245119e-06
8.018720648e-06
7.82629567e-06
7.621742901e-06
7.441768175e-06
7.252611424e-06
7.070416225e-06
6.894653168e-06
6.724981791e-06
6.561147079e-06
6.402927509e-06
6.250113033e-06
6.102497617e-06
5.959877282e-06
5.82204845e-06
5.688805639e-06
5.559935192e-06
5.435199523e-06
5.314294173e-06
5.196719383e-06
5.093486744e-06
4.984599546e-06
4.879459212e-06
4.77781248e-06
4.67947111e-06
4.58427857e-06
4.492096403e-06
4.40279762e-06
4.316263728e-06
4.232383111e-06
4.15104998e-06
4.072163832e-06
3.99562896e-06
3.921354075e-06
3.849252039e-06
3.779239783e-06
3.711237933e-06
3.645170595e-06
3.580965291e-06
3.51855282e-06
3.457866935e-06
3.398844335e-06
3.341424548e-06
3.285549674e-06
3.231164297e-06
3.178215423e-06
3.126652387e-06
3.076426608e-06
3.027491597e-06
2.97980283e-06
2.933317682e-06
2.887995278e-06
2.843796426e-06
2.800683616e-06
2.758620812e-06
2.717573448e-06
2.677508402e-06
2.638393866e-06
2.600199302e-06
2.562895387e-06
2.526453957e-06
2.490847952e-06
2.456051346e-06
2.422039158e-06
2.388787331e-06
2.356272744e-06
2.324473168e-06
2.293367162e-06
2.262934135e-06
2.233154241e-06
2.204008341e-06
2.175478037e-06
2.147545585e-06
2.120193869e-06
2.093406399e-06
2.067167271e-06
2.041461132e-06
2.016273167e-06
1.991589101e-06
1.96739513e-06
1.943677924e-06
1.920424621e-06
1.897622792e-06
1.875260417e-06
1.853325881e-06
1.83180795e-06
1.810695785e-06
1.789978881e-06
1.769647064e-06
1.749690521e-06
1.730099734e-06
1.710865488e-06
1.691978863e-06
1.673431218e-06
1.655214194e-06
1.637319689e-06
1.619739839e-06
1.602467027e-06
1.58549387e-06
1.568813219e-06
1.552418138e-06
1.536301878e-06
1.520457913e-06
1.504879912e-06
1.489561716e-06
1.474497351e-06
1.459681022e-06
1.445107098e-06
1.430770111e-06
1.416664757e-06
1.40278587e-06
1.38912843e-06
1.375687571e-06
1.36245855e-06
1.349436763e-06
1.33661774e-06
1.32399712e-06
1.31157067e-06
1.299334264e-06
1.287283894e-06
1.275415662e-06
1.26372577e-06
1.25221052e-06
1.24086631e-06
1.229689642e-06
1.218677102e-06
1.207825363e-06
1.19713119e-06
1.186591432e-06
1.176203012e-06
1.165962937e-06
1.155868287e-06
1.14591621e-06
1.136103938e-06
1.12642877e-06
1.116888061e-06
1.107479242e-06
1.098199806e-06
1.089047301e-06
1.080019336e-06
1.071113586e-06
1.062327774e-06
1.053659685e-06
1.045107148e-06
1.03666805e-06
1.028340327e-06
1.020121959e-06
1.01201098e-06
1.004005467e-06
9.961035457e-07
9.883033782e-07
9.806031689e-07
9.730011701e-07
9.654956711e-07
9.580849998e-07
9.507675222e-07
9.435416383e-07
9.36405787e-07
9.29358445e-07
9.22398117e-07
9.155233412e-07
9.087326934e-07
9.02024778e-07
8.953982244e-07
8.888516974e-07
8.82383893e-07
8.759935302e-07
8.696793556e-07
8.634401449e-07
8.572746972e-07
8.511818396e-07
8.451604261e-07
8.392093248e-07
8.333274349e-07
8.275136803e-07
8.21767e-07
8.16086357e-07
8.104707379e-07
8.049191491e-07
7.994306152e-07
7.940041778e-07
7.886389021e-07
7.833338711e-07
7.780881821e-07
7.729009538e-07
7.677713199e-07
7.626984307e-07
7.576814526e-07
7.52719568e-07
7.478119764e-07
7.429578886e-07
7.381565299e-07
7.334071455e-07
7.28708989e-07
7.240613294e-07
7.194634487e-07
7.149146402e-07
7.104142135e-07
7.059614883e-07
7.015557948e-07
6.971964767e-07
6.928828891e-07
6.886143965e-07
6.843903761e-07
6.802102141e-07
6.760733104e-07
6.719790718e-07
6.679269152e-07
6.639162703e-07
6.599465718e-07
6.560172667e-07
6.521278113e-07
6.482776678e-07
6.444663117e-07
6.40693224e-07
6.36957893e-07
6.332598194e-07
6.295985091e-07
6.25973476e-07
6.223842421e-07
6.188303368e-07
6.153112996e-07
6.118266736e-07
6.083760095e-07
6.049588671e-07
6.015748124e-07
5.982234182e-07
5.949042651e-07
5.916169382e-07
5.883610303e-07
5.851361405e-07
5.819418745e-07
5.787778453e-07
5.756436684e-07
5.72538968e-07
5.694633751e-07
5.664165255e-07
5.633980587e-07
5.604076221e-07
5.574448704e-07
5.545094591e-07
5.516010519e-07
5.48719319e-07
5.458639337e-07
5.430345756e-07
5.402309274e-07
5.374526789e-07
5.346995245e-07
5.319711629e-07
5.292672983e-07
5.265876386e-07
5.239318967e-07
5.212997906e-07
5.18691042e-07
5.161053772e-07
5.135425267e-07
5.11002226e-07
5.084842143e-07
5.059882339e-07
5.035140327e-07
5.01061362e-07
4.986299778e-07
4.962196383e-07
4.938301056e-07
4.914611469e-07
4.891125333e-07
4.867840379e-07
4.844754373e-07
4.821865123e-07
4.799170481e-07
4.776668314e-07
4.754356532e-07
4.732233077e-07
4.710295908e-07
4.688543037e-07
4.666972499e-07
4.645582353e-07
4.624370693e-07
4.603335637e-07
4.582475329e-07
4.56178795e-07
4.541271707e-07
4.520924828e-07
4.500745567e-07
4.480732211e-07
4.460883057e-07
4.441196449e-07
4.421670742e-07
4.402304302e-07
4.383095542e-07
4.364042895e-07
4.345144802e-07
4.326399732e-07
4.307806177e-07
4.28936265e-07
4.271067685e-07
4.252919841e-07
4.234917688e-07
4.217059814e-07
4.199344837e-07
4.18177139e-07
4.164338123e-07
4.147043699e-07
4.129886802e-07
4.112866139e-07
4.095980432e-07
4.079228409e-07
4.062608824e-07
4.046120454e-07
4.029762073e-07
4.013532485e-07
3.997430506e-07
3.981454958e-07
3.965604692e-07
3.949878563e-07
3.934275443e-07
3.918794213e-07
3.903433771e-07
3.888193032e-07
3.873070917e-07
3.858066362e-07
3.843178316e-07
3.828405741e-07
3.813747605e-07
3.799202891e-07
3.784770598e-07
3.770449726e-07
3.756239296e-07
3.74213833e-07
3.728145862e-07
3.714260943e-07
3.70048263e-07
3.686809987e-07
3.673242089e-07
3.659778022e-07
3.646416879e-07
3.633157762e-07
3.619999781e-07
3.606942058e-07
3.593983722e-07
3.581123907e-07
3.568361758e-07
3.555696428e-07
3.543127075e-07
3.530652867e-07
3.518272982e-07
3.5059866e-07
3.493792911e-07
3.481691111e-07
3.469680407e-07
3.457760009e-07
3.445929132e-07
3.434187003e-07
3.422532854e-07
3.410965918e-07
3.399485443e-07
3.388090677e-07
3.376780876e-07
3.365555304e-07
3.35441323e-07
3.343353928e-07
3.332376678e-07
3.321480765e-07
3.31066548e-07
3.29993012e-07
3.289273988e-07
3.278696391e-07
3.268196637e-07
3.257774042e-07
3.247427927e-07
3.23715761e-07
3.22696242e-07
3.216841684e-07
3.206794731e-07
3.196820887e-07
3.186919479e-07
3.177089836e-07
3.167331273e-07
3.157643102e-07
3.148024623e-07
3.138475118e-07
3.128993848e-07
3.119580045e-07
3.110232902e-07
3.100951556e-07
3.091735078e-07
3.082582442e-07
3.073492502e-07
3.064463951e-07
3.055495262e-07
3.046584621e-07
3.037729822e-07
3.028928126e-07
3.020176051e-07
3.011469033e-07
3.002800884e-07
2.994162784e-07
2.985541308e-07
2.976914022e-07
2.968237236e-07
2.959389558e-07
2.951730081e-07
2.94420351e-07
2.936677872e-07
2.928875502e-07
2.920767993e-07
2.912731378e-07
2.904738501e-07
2.89677393e-07
2.888821553e-07
2.880857841e-07
2.872839154e-07
2.864647222e-07
2.857562362e-07
2.850589796e-07
2.843639604e-07
2.836421063e-07
2.828853663e-07
2.821306039e-07
2.813716048e-07
2.805963701e-07
2.799273876e-07
2.792702625e-07
2.786066616e-07
2.77903746e-07
2.771811315e-07
2.76454269e-07
2.75710444e-07
2.750701311e-07
2.744102942e-07
2.737772898e-07
2.731358054e-07
2.725212103e-07
2.718800182e-07
2.712470297e-07
2.70595585e-07
2.699381732e-07
2.692771776e-07
2.686099506e-07
2.679254807e-07
2.673349198e-07
2.667522323e-07
2.661585614e-07
2.655035443e-07
2.649321601e-07
2.643500072e-07
2.637828035e-07
2.632155149e-07
2.626543698e-07
2.620873471e-07
2.615070413e-07
2.609088324e-07
2.60310375e-07
2.597002483e-07
2.591775203e-07
2.586465433e-07
2.58109515e-07
2.575634533e-07
2.569995106e-07
2.56434281e-07
2.558688017e-07
2.552979537e-07
2.547100261e-07
2.542011444e-07
2.536902418e-07
2.531820858e-07
2.52678884e-07
2.521855185e-07
2.516854599e-07
2.512002899e-07
2.507186455e-07
2.502097431e-07
2.497069805e-07
2.49192084e-07
2.486683167e-07
2.481296232e-07
2.476686889e-07
2.472146794e-07
2.467631291e-07
2.462934109e-07
2.457903722e-07
2.452777318e-07
2.448424024e-07
2.444018429e-07
2.439521566e-07
2.434961218e-07
2.4302538e-07
2.425538056e-07
2.420767931e-07
2.415847753e-07
2.411640459e-07
2.407487113e-07
2.403362537e-07
2.39904002e-07
2.394406276e-07
2.389659469e-07
2.385615795e-07
2.381631727e-07
2.377633914e-07
2.373399611e-07
2.368798288e-07
2.364900056e-07
2.360879792e-07
2.357017981e-07
2.353186907e-07
2.349389203e-07
2.345452991e-07
2.341122748e-07
2.33738287e-07
2.333655911e-07
2.329833387e-07
2.326163017e-07
2.32245763e-07
2.318915958e-07
2.315149771e-07
2.311483219e-07
2.307966095e-07
2.304376559e-07
2.300883173e-07
2.297363992e-07
2.293992662e-07
2.290468015e-07
2.287155759e-07
2.283682916e-07
2.280418609e-07
2.277031631e-07
2.273803675e-07
2.270478173e-07
2.267293783e-07
2.2640268e-07
2.260872563e-07
2.257658955e-07
2.254548222e-07
2.251429045e-07
2.248399269e-07
2.245268433e-07
2.242221082e-07
2.239225198e-07
2.236117245e-07
2.233322614e-07
2.230289386e-07
2.227484019e-07
2.224589941e-07
2.221858162e-07
2.218984452e-07
2.216367397e-07
2.213602702e-07
2.210960324e-07
2.208134756e-07
2.205278147e-07
2.202427308e-07
2.199585068e-07
2.196753821e-07
2.193934725e-07
2.191127553e-07
2.188331621e-07
2.185546326e-07
2.182771349e-07
2.180006819e-07
2.177253426e-07
2.174512385e-07
2.171785972e-07
2.169081803e-07
2.166425451e-07
2.163883536e-07
2.161410092e-07
2.158969595e-07
2.156500733e-07
2.153900275e-07
2.151711209e-07
2.149440009e-07
2.147077643e-07
2.144934648e-07
2.142633816e-07
2.14052603e-07
2.138060585e-07
2.135973964e-07
2.133532902e-07
2.131137727e-07
2.128770259e-07
2.126419628e-07
2.124080783e-07
2.121751253e-07
2.1194295e-07
2.117114336e-07
2.114804707e-07
2.112499595e-07
2.110197957e-07
2.107898691e-07
2.105600614e-07
2.103302452e-07
2.101002827e-07
2.098700257e-07
2.096393149e-07
2.094079795e-07
2.091758373e-07
2.08942694e-07
2.087083424e-07
2.084725625e-07
2.082351204e-07
2.079957678e-07
2.077542419e-07
2.075102649e-07
2.072635456e-07
2.070137815e-07
2.067606649e-07
2.065038816e-07
2.062430585e-07
2.059775474e-07
2.057061433e-07
2.054283737e-07
2.051709132e-07
2.049370047e-07
2.046595416e-07
2.04367984e-07
2.040721792e-07
2.037704314e-07
2.034620856e-07
2.031468848e-07
2.028247932e-07
2.024953562e-07
2.021517611e-07
2.018670608e-07
2.015368129e-07
2.011803668e-07
2.008126315e-07
2.004347444e-07
2.000462718e-07
1.996469006e-07
1.992362464e-07
1.988138954e-07
1.983794276e-07
1.97932421e-07
1.974724507e-07
1.969990893e-07
1.965119075e-07
1.960104757e-07
1.954943655e-07
1.949631511e-07
1.944164111e-07
1.938537295e-07
1.932746971e-07
1.926789135e-07
1.920659883e-07
1.914355425e-07
1.907872106e-07
1.901206423e-07
1.894355048e-07
1.887314853e-07
1.880082941e-07
1.872656681e-07
1.865033764e-07
1.857212259e-07
1.849190708e-07
1.84096825e-07
1.832544829e-07
1.823921484e-07
1.815100485e-07
1.806083955e-07
1.79686869e-07
1.787447014e-07
1.777901739e-07
1.768575787e-07
1.760418112e-07
1.750882225e-07
1.740603294e-07
1.730173466e-07
1.719560065e-07
1.708759638e-07
1.697776031e-07
1.686615314e-07
1.675284121e-07
1.663789242e-07
1.652137591e-07
1.640336275e-07
1.628392647e-07
1.61631435e-07
1.604109347e-07
1.591785928e-07
1.579352725e-07
1.566818708e-07
1.55419318e-07
1.541485782e-07
1.528706469e-07
1.515865497e-07
1.502973416e-07
1.490041055e-07
1.477079496e-07
1.464100073e-07
1.451114358e-07
1.438134152e-07
1.425171486e-07
1.412238638e-07
1.399348151e-07
1.386512853e-07
1.373745914e-07
1.361060907e-07
1.348471884e-07
1.335993484e-07
1.32364107e-07
1.311430893e-07
1.299380261e-07
1.287507718e-07
1.275833188e-07
1.264378086e-07
1.253165448e-07
1.242220327e-07
1.231570976e-07
1.221251758e-07
1.211309146e-07
1.201812571e-07
1.192872213e-07
1.184666649e-07
1.177485534e-07
1.171797517e-07
1.16836637e-07
)
;

boundaryField
{
    base
    {
        type            empty;
    }
    outlet
    {
        type            zeroGradient;
    }
    inlet
    {
        type            fixedValue;
        value           uniform 0;
    }
}


// ************************************************************************* //
