/*--------------------------------*- C++ -*----------------------------------*\
| =========                 |                                                 |
| \\      /  F ield         | OpenFOAM: The Open Source CFD Toolbox           |
|  \\    /   O peration     | Version:  v1712                                 |
|   \\  /    A nd           | Web:      www.OpenFOAM.com                      |
|    \\/     M anipulation  |                                                 |
\*---------------------------------------------------------------------------*/
FoamFile
{
    version     2.0;
    format      ascii;
    class       volScalarField;
    location    "0.001";
    object      HO2;
}
// * * * * * * * * * * * * * * * * * * * * * * * * * * * * * * * * * * * * * //

dimensions      [0 0 0 0 0 0 0];


internalField   nonuniform List<scalar> 
1500
(
6.133796384e-38
1.372888288e-37
2.151562938e-37
2.910272461e-37
3.67019944e-37
4.445902864e-37
5.195442075e-37
5.984850311e-37
6.83754584e-37
7.465686202e-37
8.437947886e-37
9.127291523e-37
9.839485683e-37
1.0572303e-36
1.149137472e-36
1.23422574e-36
1.307229697e-36
1.3839071e-36
1.454609912e-36
1.523768655e-36
1.586444473e-36
1.644355236e-36
1.708200063e-36
1.79392999e-36
1.848590299e-36
1.90806738e-36
1.976860135e-36
2.068661444e-36
2.115521827e-36
2.165692476e-36
2.236755621e-36
2.300319618e-36
2.378388248e-36
2.430901482e-36
2.490991518e-36
2.55944973e-36
2.610890961e-36
2.685450877e-36
2.752924934e-36
2.816309032e-36
2.876153768e-36
2.946283907e-36
3.062685202e-36
3.158124813e-36
3.250599775e-36
3.328140831e-36
3.418800663e-36
3.532473049e-36
3.647363779e-36
3.79375064e-36
3.904637141e-36
4.001790344e-36
4.096872963e-36
4.183792141e-36
4.261799139e-36
4.327610745e-36
4.390529286e-36
4.465028401e-36
4.530475771e-36
4.583954982e-36
4.617918689e-36
4.646939762e-36
4.667834937e-36
4.682230406e-36
4.692008945e-36
4.697157992e-36
4.698425117e-36
4.696470668e-36
4.691396188e-36
4.68534863e-36
4.673607272e-36
4.663597402e-36
4.651244044e-36
4.640098599e-36
4.627401008e-36
4.616789481e-36
4.608412857e-36
4.597175821e-36
4.589543419e-36
4.581987618e-36
4.575627695e-36
4.569956082e-36
4.564939991e-36
4.560809896e-36
4.556793111e-36
4.553901347e-36
4.551353956e-36
4.549273112e-36
4.547170912e-36
4.545640651e-36
4.544380764e-36
4.543530097e-36
4.542959482e-36
4.542277999e-36
4.541830537e-36
4.541513794e-36
4.541264873e-36
4.541109408e-36
4.54091737e-36
4.540773757e-36
4.540664681e-36
4.540604244e-36
4.540559015e-36
4.54051433e-36
4.540477664e-36
4.540449551e-36
4.54042711e-36
4.540407484e-36
4.54038952e-36
4.540369744e-36
4.540353083e-36
4.54033789e-36
4.540321732e-36
4.540299623e-36
4.540285559e-36
4.540269937e-36
4.540247903e-36
4.540227508e-36
4.540200937e-36
4.540186279e-36
4.540167853e-36
4.540151599e-36
4.540134608e-36
4.54011275e-36
4.540081232e-36
4.540057173e-36
4.540032479e-36
4.54001103e-36
4.539987142e-36
4.539954598e-36
4.539928621e-36
4.539903674e-36
4.539875229e-36
4.539847699e-36
4.539819192e-36
4.539786267e-36
4.5397588e-36
4.539728653e-36
4.539698908e-36
4.539665188e-36
4.539632809e-36
4.539607548e-36
4.539569515e-36
4.539532295e-36
4.539498398e-36
4.539459066e-36
4.539424413e-36
4.539386723e-36
4.539346394e-36
4.539300862e-36
4.539255908e-36
4.539222561e-36
4.539177324e-36
4.539123294e-36
4.539078068e-36
4.539037145e-36
4.538994038e-36
4.538950765e-36
4.538903633e-36
4.538858647e-36
4.5388086e-36
4.538758852e-36
4.538709674e-36
4.538662564e-36
4.538610557e-36
4.538557867e-36
4.538507095e-36
4.538443075e-36
4.538384597e-36
4.53832736e-36
4.538270724e-36
4.538219389e-36
4.538163819e-36
4.538111548e-36
4.538052603e-36
4.538000428e-36
4.537945336e-36
4.537892995e-36
4.537842034e-36
4.537774618e-36
4.537708862e-36
4.537651006e-36
4.537573724e-36
4.537524576e-36
4.537462532e-36
4.537410134e-36
4.537343701e-36
4.537272263e-36
4.537208902e-36
4.537146749e-36
4.537084192e-36
4.537025644e-36
4.536971248e-36
4.536911081e-36
4.536851712e-36
4.536794041e-36
4.536729031e-36
4.536671254e-36
4.536612264e-36
4.536558827e-36
4.536502857e-36
4.536440331e-36
4.536368533e-36
4.536280402e-36
4.536211583e-36
4.536142177e-36
4.536079975e-36
4.536020008e-36
4.535959427e-36
4.535895432e-36
4.535820398e-36
4.535740073e-36
4.535674481e-36
4.535601609e-36
4.535516137e-36
4.535448411e-36
4.535380601e-36
4.535314235e-36
4.535252953e-36
4.535180661e-36
4.535118115e-36
4.535050321e-36
4.534987394e-36
4.534917894e-36
4.534856368e-36
4.534785455e-36
4.534688873e-36
4.534609883e-36
4.534539227e-36
4.534463324e-36
4.534399951e-36
4.534308263e-36
4.534241269e-36
4.534174518e-36
4.53411035e-36
4.534048011e-36
4.533979628e-36
4.533920609e-36
4.533850676e-36
4.53378178e-36
4.533690648e-36
4.533601218e-36
4.533522955e-36
4.533461867e-36
4.533403109e-36
4.533338993e-36
4.533257691e-36
4.533181168e-36
4.533112102e-36
4.533050154e-36
4.532982235e-36
4.532917949e-36
4.532860457e-36
4.532790551e-36
4.532712274e-36
4.532641729e-36
4.532573911e-36
4.532498155e-36
4.53243991e-36
4.532374849e-36
4.532305648e-36
4.532235618e-36
4.532171796e-36
4.532113034e-36
4.532037593e-36
4.531968981e-36
4.531897444e-36
4.531837254e-36
4.53177261e-36
4.531688075e-36
4.531613707e-36
4.531550485e-36
4.531487824e-36
4.531421909e-36
4.531355393e-36
4.531279513e-36
4.531214721e-36
4.531152925e-36
4.531091882e-36
4.531026428e-36
4.530963627e-36
4.530902167e-36
4.530838843e-36
4.530773956e-36
4.530708244e-36
4.53064862e-36
4.530590992e-36
4.530517268e-36
4.530450489e-36
4.53038501e-36
4.5303166e-36
4.530251415e-36
4.530189858e-36
4.53012538e-36
4.530063938e-36
4.530004082e-36
4.529938411e-36
4.52987605e-36
4.529817072e-36
4.529757558e-36
4.529693011e-36
4.529631515e-36
4.529572309e-36
4.52951892e-36
4.529452167e-36
4.5293956e-36
4.529337499e-36
4.529277264e-36
4.529219215e-36
4.52915534e-36
4.529089629e-36
4.529036122e-36
4.528983776e-36
4.528933518e-36
4.528869431e-36
4.528792529e-36
4.528700641e-36
4.528642995e-36
4.528590776e-36
4.528538043e-36
4.52848527e-36
4.528436922e-36
4.528383405e-36
4.528330171e-36
4.528278163e-36
4.528221835e-36
4.528153195e-36
4.528096719e-36
4.52804376e-36
4.527991071e-36
4.52793753e-36
4.527880401e-36
4.527827367e-36
4.527774041e-36
4.527722524e-36
4.527674799e-36
4.527620254e-36
4.527552194e-36
4.527490219e-36
4.52743592e-36
4.527387745e-36
4.527333117e-36
4.52728269e-36
4.527232795e-36
4.527186062e-36
4.527142977e-36
4.527087407e-36
4.527037881e-36
4.526988533e-36
4.526933593e-36
4.526873708e-36
4.526795107e-36
4.526738375e-36
4.52668724e-36
4.526640785e-36
4.526596264e-36
4.52654982e-36
4.52650014e-36
4.526446683e-36
4.526385565e-36
4.52632461e-36
4.526273674e-36
4.526227531e-36
4.526174854e-36
4.526122495e-36
4.526076637e-36
4.526027145e-36
4.525981548e-36
4.52593207e-36
4.525887611e-36
4.525838455e-36
4.525790432e-36
4.525743552e-36
4.525697094e-36
4.52564896e-36
4.525605113e-36
4.525549601e-36
4.525504639e-36
4.525452043e-36
4.525402534e-36
4.525363378e-36
4.525321516e-36
4.525261612e-36
4.525201989e-36
4.525144986e-36
4.525097196e-36
4.525050567e-36
4.5250042e-36
4.524960515e-36
4.524916773e-36
4.524871451e-36
4.524824383e-36
4.524781458e-36
4.524737264e-36
4.524693509e-36
4.524650177e-36
4.524608427e-36
4.524565609e-36
4.524518709e-36
4.524477009e-36
4.524432941e-36
4.524386397e-36
4.524343352e-36
4.524300951e-36
4.524259638e-36
4.524218868e-36
4.524166385e-36
4.524123627e-36
4.524068096e-36
4.524028464e-36
4.523986141e-36
4.523942531e-36
4.523900209e-36
4.523860847e-36
4.523817763e-36
4.523778136e-36
4.523737252e-36
4.523697487e-36
4.52365577e-36
4.523612456e-36
4.523573356e-36
4.523529079e-36
4.523484736e-36
4.523442551e-36
4.523400653e-36
4.523358836e-36
4.523317184e-36
4.523276118e-36
4.5232315e-36
4.523191226e-36
4.523151677e-36
4.523112515e-36
4.523069193e-36
4.523029072e-36
4.522990883e-36
4.52295189e-36
4.52291241e-36
4.522871151e-36
4.522831526e-36
4.52279373e-36
4.522755882e-36
4.522722593e-36
4.52268434e-36
4.522643264e-36
4.522602737e-36
4.522551814e-36
4.522504343e-36
4.522458095e-36
4.522416771e-36
4.52237669e-36
4.522342058e-36
4.522309569e-36
4.522271443e-36
4.522233786e-36
4.522195079e-36
4.522146407e-36
4.52209782e-36
4.522051004e-36
4.522008297e-36
4.521966179e-36
4.521932013e-36
4.521902624e-36
4.521873804e-36
4.521839276e-36
4.521803383e-36
4.521762882e-36
4.521728291e-36
4.521688631e-36
4.521651747e-36
4.521606706e-36
4.5215712e-36
4.521527498e-36
4.521489344e-36
4.521451097e-36
4.521413575e-36
4.521380528e-36
4.521350577e-36
4.521317874e-36
4.521275404e-36
4.521239106e-36
4.521197803e-36
4.521161409e-36
4.521126238e-36
4.521086203e-36
4.521049234e-36
4.521015046e-36
4.520980599e-36
4.520944114e-36
4.520908355e-36
4.520871345e-36
4.520834449e-36
4.520790602e-36
4.520754527e-36
4.52072158e-36
4.520688347e-36
4.520654927e-36
4.520621557e-36
4.520587664e-36
4.520551363e-36
4.520514605e-36
4.5204826e-36
4.520449804e-36
4.52041725e-36
4.520383284e-36
4.520349164e-36
4.520314366e-36
4.520279152e-36
4.520245199e-36
4.520211255e-36
4.52017808e-36
4.520141636e-36
4.520109558e-36
4.520076469e-36
4.520044579e-36
4.520011398e-36
4.519976108e-36
4.519939737e-36
4.519906511e-36
4.519871193e-36
4.519836079e-36
4.519800981e-36
4.519770604e-36
4.519742386e-36
4.51971448e-36
4.519681403e-36
4.519646302e-36
4.519610436e-36
4.519574728e-36
4.519540058e-36
4.519497419e-36
4.519462879e-36
4.519429972e-36
4.519396399e-36
4.51936588e-36
4.519335258e-36
4.519304374e-36
4.519271258e-36
4.519239574e-36
4.519206975e-36
4.519175027e-36
4.519141894e-36
4.519110311e-36
4.51907864e-36
4.519047024e-36
4.519015596e-36
4.518981592e-36
4.51895168e-36
4.518918798e-36
4.518886409e-36
4.518854346e-36
4.518822632e-36
4.518790154e-36
4.518759361e-36
4.518727782e-36
4.51869662e-36
4.518666012e-36
4.518634119e-36
4.518603249e-36
4.518573477e-36
4.518542486e-36
4.518508475e-36
4.518478825e-36
4.518446586e-36
4.5184174e-36
4.518387138e-36
4.518356634e-36
4.518327461e-36
4.518296008e-36
4.51826704e-36
4.518236652e-36
4.518208165e-36
4.518179195e-36
4.518150739e-36
4.518120936e-36
4.518088856e-36
4.518062101e-36
4.518035414e-36
4.518012995e-36
4.517994452e-36
4.517982008e-36
4.517979817e-36
4.517993827e-36
4.518034158e-36
4.518122733e-36
4.518291832e-36
4.518583464e-36
4.51913701e-36
4.520123741e-36
4.522077553e-36
4.524879523e-36
4.529600026e-36
4.537392593e-36
4.550824445e-36
4.572747226e-36
4.611119841e-36
4.676841982e-36
4.784636062e-36
4.964972158e-36
5.275859199e-36
5.847878273e-36
6.802376529e-36
8.448058637e-36
1.121488002e-35
1.583238782e-35
2.362430361e-35
3.785120808e-35
6.06912837e-35
9.96602834e-35
1.673742474e-34
2.830597321e-34
4.878922424e-34
8.09446713e-34
1.328903937e-33
2.131635628e-33
3.545840574e-33
5.918058861e-33
1.040705782e-32
1.750825735e-32
2.804630888e-32
4.399548076e-32
7.738723121e-32
1.245610917e-31
2.02791545e-31
3.373435873e-31
5.982255959e-31
1.054792589e-30
1.87354391e-30
3.169839872e-30
5.396963481e-30
8.935832307e-30
1.387368004e-29
2.350259415e-29
4.084653414e-29
7.140870417e-29
1.251779277e-28
2.198981712e-28
3.870138164e-28
6.82391257e-28
1.205526046e-27
2.134005074e-27
3.785530608e-27
6.72988385e-27
1.199161874e-26
2.141809883e-26
3.834978923e-26
6.884475749e-26
1.239223946e-25
2.23687113e-25
4.049302748e-25
7.351847936e-25
1.33878854e-24
2.445376633e-24
4.480477827e-24
8.236038261e-24
1.519441212e-23
2.812527705e-23
5.204339278e-23
9.683504554e-23
1.802391098e-22
3.369174753e-22
6.293845297e-22
1.173745083e-21
2.201184922e-21
4.141427631e-21
7.784136561e-21
1.465407743e-20
2.756777295e-20
5.202461501e-20
9.813777966e-20
1.856838165e-19
3.506263517e-19
6.611040928e-19
1.255333336e-18
2.369313808e-18
4.496815387e-18
8.528753923e-18
1.613805078e-17
3.058404105e-17
5.810191158e-17
1.103651136e-16
2.106772638e-16
3.9961707e-16
7.595479206e-16
1.447276967e-15
2.734709555e-15
5.170049367e-15
9.72445107e-15
1.802672801e-14
3.338089669e-14
6.248080858e-14
1.152370493e-13
2.085377406e-13
3.92752194e-13
7.587939726e-13
1.47763773e-12
2.894168999e-12
5.699760389e-12
1.128573665e-11
2.246519088e-11
4.495090822e-11
9.039084449e-11
1.826193217e-10
3.705604179e-10
7.549163108e-10
1.54346747e-09
3.165837188e-09
6.511992678e-09
1.342841328e-08
2.775097644e-08
5.745557991e-08
1.191337826e-07
2.472956117e-07
5.136618007e-07
1.064788851e-06
2.171548639e-06
4.347516963e-06
8.550308086e-06
1.446395665e-05
2.467026021e-05
4.471338244e-05
8.040655589e-05
0.0001389646224
0.000226833286
0.0003423544141
0.0004604848934
0.0005470144677
0.0005971556338
0.0005982823889
0.0005750402465
0.0005264794774
0.0004812896765
0.0004297547002
0.0003806712527
0.0003368737901
0.0002985242587
0.0002652251565
0.0002363580368
0.0002112648342
0.0001893301279
0.000170015135
0.0001528718285
0.0001375684276
0.0001239270028
0.0001117599014
0.0001015171827
9.231411975e-05
8.390124007e-05
7.591997837e-05
6.854808332e-05
6.195435499e-05
5.605820716e-05
5.079436671e-05
4.610917422e-05
4.195345462e-05
3.827565305e-05
3.501923091e-05
3.243451868e-05
3.01392221e-05
2.797609517e-05
2.607860825e-05
2.440460821e-05
2.30715509e-05
2.190827804e-05
2.086185423e-05
1.987836117e-05
1.900627875e-05
1.822884914e-05
1.753214146e-05
1.690442033e-05
1.633578397e-05
1.581788155e-05
1.534367552e-05
1.490723818e-05
1.450357604e-05
1.412848025e-05
1.377839693e-05
1.345031891e-05
1.314169357e-05
1.285034515e-05
1.257440979e-05
1.231227909e-05
1.206255262e-05
1.182399548e-05
1.159549323e-05
1.137598125e-05
1.116427327e-05
1.098004923e-05
1.078547376e-05
1.061541638e-05
1.043694266e-05
1.026514334e-05
1.009938066e-05
9.939209969e-06
9.784285955e-06
9.634313039e-06
9.489023481e-06
9.348168971e-06
9.211516989e-06
9.078847277e-06
8.949947979e-06
8.824609016e-06
8.702609643e-06
8.583692048e-06
8.467497875e-06
8.365359406e-06
8.256729223e-06
8.151069338e-06
8.04821841e-06
7.948045488e-06
7.850437056e-06
7.755291218e-06
7.662514049e-06
7.572017846e-06
7.483720056e-06
7.397542505e-06
7.313411018e-06
7.231255029e-06
7.151007261e-06
7.072603502e-06
6.995982573e-06
6.921085973e-06
6.847857691e-06
6.776244173e-06
6.706194228e-06
6.637658705e-06
6.570590539e-06
6.504944665e-06
6.440677785e-06
6.377748305e-06
6.316116323e-06
6.255743568e-06
6.196593169e-06
6.138629707e-06
6.081819117e-06
6.026128654e-06
5.971526767e-06
5.917983054e-06
5.86546831e-06
5.813954316e-06
5.763413872e-06
5.713820806e-06
5.665149846e-06
5.617376611e-06
5.570477568e-06
5.524429998e-06
5.479211961e-06
5.434802237e-06
5.391180366e-06
5.348326527e-06
5.306221575e-06
5.264847013e-06
5.224184883e-06
5.184217869e-06
5.144929183e-06
5.106302533e-06
5.068322196e-06
5.030972917e-06
4.994239895e-06
4.9581088e-06
4.922565736e-06
4.887597208e-06
4.853190124e-06
4.819331814e-06
4.786009946e-06
4.753212547e-06
4.720928009e-06
4.689145054e-06
4.65785271e-06
4.627040318e-06
4.596697517e-06
4.566814262e-06
4.537380758e-06
4.508387468e-06
4.479825154e-06
4.451684802e-06
4.42395764e-06
4.396635132e-06
4.36970897e-06
4.343171076e-06
4.317013586e-06
4.291228815e-06
4.265809292e-06
4.240747738e-06
4.216037073e-06
4.191670395e-06
4.167640948e-06
4.143942176e-06
4.120567689e-06
4.097511237e-06
4.074766732e-06
4.052328241e-06
4.030189974e-06
4.008346285e-06
3.986791672e-06
3.965520751e-06
3.944528264e-06
3.923809103e-06
3.903358258e-06
3.883170852e-06
3.863242129e-06
3.84356743e-06
3.824142213e-06
3.804962032e-06
3.786022555e-06
3.76731955e-06
3.748848883e-06
3.730606504e-06
3.712588459e-06
3.694790898e-06
3.677210044e-06
3.659842204e-06
3.642683777e-06
3.625731241e-06
3.608981148e-06
3.592430131e-06
3.576074893e-06
3.559912202e-06
3.543938917e-06
3.528151961e-06
3.512548309e-06
3.497125016e-06
3.481879202e-06
3.466808035e-06
3.45190875e-06
3.437178651e-06
3.42261509e-06
3.408215483e-06
3.39397729e-06
3.379898036e-06
3.365975291e-06
3.352206673e-06
3.338589861e-06
3.325122574e-06
3.311802588e-06
3.298627711e-06
3.285595798e-06
3.272704759e-06
3.25995254e-06
3.24733713e-06
3.234856558e-06
3.222508887e-06
3.210292226e-06
3.198204725e-06
3.186244561e-06
3.174409945e-06
3.162699135e-06
3.151110418e-06
3.139642101e-06
3.128292537e-06
3.117060111e-06
3.105943232e-06
3.094940336e-06
3.084049893e-06
3.073270396e-06
3.06260037e-06
3.052038371e-06
3.041582962e-06
3.031232743e-06
3.020986343e-06
3.010842403e-06
3.000799589e-06
2.990856594e-06
2.98101213e-06
2.971264928e-06
2.961613735e-06
2.952057325e-06
2.942594489e-06
2.93322403e-06
2.923944778e-06
2.914755574e-06
2.905655276e-06
2.89664276e-06
2.887716915e-06
2.878876652e-06
2.870120887e-06
2.861448553e-06
2.852858607e-06
2.844350008e-06
2.835921732e-06
2.827572771e-06
2.819302123e-06
2.811108808e-06
2.802991852e-06
2.794950292e-06
2.78698318e-06
2.779089578e-06
2.771268557e-06
2.763519204e-06
2.755840612e-06
2.748231891e-06
2.740692156e-06
2.733220532e-06
2.725816162e-06
2.71847819e-06
2.711205775e-06
2.703998087e-06
2.6968543e-06
2.689773607e-06
2.682755206e-06
2.675798301e-06
2.668902114e-06
2.662065873e-06
2.655288814e-06
2.648570184e-06
2.64190924e-06
2.635305253e-06
2.628757496e-06
2.622265254e-06
2.615827824e-06
2.609444512e-06
2.603114633e-06
2.596837514e-06
2.590612488e-06
2.584438899e-06
2.578316101e-06
2.572243458e-06
2.566220346e-06
2.560246144e-06
2.554320244e-06
2.548442051e-06
2.542610978e-06
2.536826442e-06
2.531087873e-06
2.525394718e-06
2.519746419e-06
2.514142437e-06
2.508582242e-06
2.503065311e-06
2.497591131e-06
2.492159195e-06
2.486769009e-06
2.481420088e-06
2.476111952e-06
2.470844136e-06
2.465616178e-06
2.460427627e-06
2.45527804e-06
2.450166985e-06
2.445094033e-06
2.440058768e-06
2.43506078e-06
2.430099668e-06
2.425175037e-06
2.420286502e-06
2.415433684e-06
2.410616215e-06
2.40583373e-06
2.40108587e-06
2.396372288e-06
2.391692644e-06
2.387046602e-06
2.382433831e-06
2.377854011e-06
2.373306827e-06
2.368791969e-06
2.364309134e-06
2.359858027e-06
2.355438354e-06
2.351049831e-06
2.34669218e-06
2.342365125e-06
2.338068399e-06
2.333801736e-06
2.329564879e-06
2.325357573e-06
2.321179572e-06
2.31703063e-06
2.312910508e-06
2.308818971e-06
2.304755787e-06
2.300720731e-06
2.29671358e-06
2.292734112e-06
2.288782116e-06
2.284857379e-06
2.280959694e-06
2.277088855e-06
2.27324466e-06
2.269426913e-06
2.265635416e-06
2.26186998e-06
2.258130413e-06
2.254416528e-06
2.250728142e-06
2.247065071e-06
2.243427138e-06
2.239814163e-06
2.236225971e-06
2.232662388e-06
2.229123244e-06
2.225608367e-06
2.222117589e-06
2.218650744e-06
2.215207666e-06
2.21178819e-06
2.208392155e-06
2.205019396e-06
2.201669755e-06
2.198343072e-06
2.195039187e-06
2.191757941e-06
2.188499176e-06
2.185262737e-06
2.182048466e-06
2.178856207e-06
2.175685804e-06
2.172537103e-06
2.169409947e-06
2.166304181e-06
2.163219651e-06
2.160156202e-06
2.157113679e-06
2.154091927e-06
2.15109079e-06
2.148110114e-06
2.145149744e-06
2.142209524e-06
2.139289299e-06
2.136388913e-06
2.13350821e-06
2.130647035e-06
2.12780523e-06
2.124982639e-06
2.122179107e-06
2.119394475e-06
2.116628587e-06
2.113881287e-06
2.111152415e-06
2.108441816e-06
2.105749331e-06
2.103074805e-06
2.100418078e-06
2.097778994e-06
2.095157396e-06
2.092553127e-06
2.08996603e-06
2.087395949e-06
2.084842728e-06
2.08230621e-06
2.07978624e-06
2.077282664e-06
2.074795328e-06
2.072324077e-06
2.06986876e-06
2.067429224e-06
2.065005317e-06
2.06259689e-06
2.060203792e-06
2.057825874e-06
2.05546299e-06
2.053114993e-06
2.050781737e-06
2.048463077e-06
2.046158869e-06
2.043868971e-06
2.041593242e-06
2.03933154e-06
2.037083726e-06
2.03484966e-06
2.032629202e-06
2.030422215e-06
2.028228558e-06
2.026048092e-06
2.023880675e-06
2.021726164e-06
2.019584412e-06
2.017455268e-06
2.015338573e-06
2.013234159e-06
2.011141848e-06
2.009061439e-06
2.006992709e-06
2.004935397e-06
2.002889188e-06
2.000853688e-06
1.998828382e-06
1.996812572e-06
1.994805266e-06
1.992805011e-06
1.990809598e-06
1.988815562e-06
1.986817287e-06
1.984805271e-06
1.982762457e-06
1.980655903e-06
1.97888749e-06
1.977168388e-06
1.975455072e-06
1.973663632e-06
1.97177613e-06
1.96989873e-06
1.968026887e-06
1.966156052e-06
1.964280079e-06
1.962389114e-06
1.960465735e-06
1.958476515e-06
1.956809747e-06
1.95518699e-06
1.95357624e-06
1.951888101e-06
1.950086753e-06
1.948275235e-06
1.946434312e-06
1.944530211e-06
1.942940482e-06
1.941397058e-06
1.939839651e-06
1.938162846e-06
1.936411093e-06
1.934626409e-06
1.932771938e-06
1.931223915e-06
1.929628464e-06
1.928097778e-06
1.926560756e-06
1.92508488e-06
1.923547498e-06
1.922028282e-06
1.920447622e-06
1.918835676e-06
1.917202148e-06
1.915533836e-06
1.913795863e-06
1.912344646e-06
1.910924804e-06
1.90946913e-06
1.907812259e-06
1.906405368e-06
1.904966065e-06
1.90357464e-06
1.902180718e-06
1.900804089e-06
1.899411401e-06
1.897968778e-06
1.896461785e-06
1.894938832e-06
1.893365299e-06
1.89206804e-06
1.890748481e-06
1.889416838e-06
1.888055507e-06
1.886628258e-06
1.885190257e-06
1.883741913e-06
1.882262513e-06
1.880712695e-06
1.879413512e-06
1.878108882e-06
1.876810135e-06
1.875523913e-06
1.874270983e-06
1.872994974e-06
1.871768184e-06
1.870550444e-06
1.869260484e-06
1.86796939e-06
1.866621097e-06
1.865231467e-06
1.863778379e-06
1.862581017e-06
1.861414857e-06
1.860260621e-06
1.859045157e-06
1.857703174e-06
1.856310368e-06
1.855176238e-06
1.854029015e-06
1.852862046e-06
1.85167237e-06
1.850427251e-06
1.849168091e-06
1.847874275e-06
1.846511713e-06
1.845390604e-06
1.844297245e-06
1.843217946e-06
1.842071915e-06
1.840806136e-06
1.839482e-06
1.838396761e-06
1.837338871e-06
1.83627862e-06
1.835131661e-06
1.833837017e-06
1.83277828e-06
1.831686483e-06
1.830642408e-06
1.829609327e-06
1.828587228e-06
1.827514605e-06
1.826295298e-06
1.825275918e-06
1.824257623e-06
1.823198126e-06
1.82219339e-06
1.82117183e-06
1.820205699e-06
1.819164528e-06
1.818140816e-06
1.817172157e-06
1.816168705e-06
1.815201179e-06
1.814218559e-06
1.813285288e-06
1.812301638e-06
1.811382037e-06
1.810409088e-06
1.809501384e-06
1.808549196e-06
1.807650368e-06
1.80671142e-06
1.80582294e-06
1.804898991e-06
1.804014987e-06
1.803104071e-06
1.802228521e-06
1.801344592e-06
1.800487137e-06
1.799601532e-06
1.798732061e-06
1.797887943e-06
1.796997312e-06
1.796209336e-06
1.795339347e-06
1.794547851e-06
1.793719854e-06
1.792949917e-06
1.79213398e-06
1.791402361e-06
1.790627518e-06
1.789885644e-06
1.789083522e-06
1.788259562e-06
1.787431977e-06
1.786603669e-06
1.785776699e-06
1.784951611e-06
1.784128145e-06
1.783305827e-06
1.782484045e-06
1.781662056e-06
1.780839196e-06
1.780015181e-06
1.779190142e-06
1.7783641e-06
1.777537972e-06
1.776723108e-06
1.775960243e-06
1.77522836e-06
1.774506517e-06
1.773764517e-06
1.772953058e-06
1.772299766e-06
1.771618156e-06
1.770900358e-06
1.77025955e-06
1.769553175e-06
1.768913784e-06
1.768133785e-06
1.767485391e-06
1.766688547e-06
1.765901087e-06
1.76511681e-06
1.764330519e-06
1.763539417e-06
1.762741734e-06
1.76193608e-06
1.761121209e-06
1.760295913e-06
1.759458959e-06
1.758609062e-06
1.757744859e-06
1.756864895e-06
1.755967617e-06
1.755051364e-06
1.754114369e-06
1.753154753e-06
1.752170525e-06
1.751159572e-06
1.75011966e-06
1.74904842e-06
1.747943344e-06
1.746801769e-06
1.74562086e-06
1.744397594e-06
1.743128725e-06
1.741810755e-06
1.740439887e-06
1.739011984e-06
1.737522561e-06
1.735966659e-06
1.734337207e-06
1.732618997e-06
1.730798366e-06
1.729183606e-06
1.727712206e-06
1.725840799e-06
1.723794081e-06
1.721663875e-06
1.719438086e-06
1.717108975e-06
1.714669943e-06
1.712117309e-06
1.709454164e-06
1.70663869e-06
1.704449864e-06
1.701763894e-06
1.698721279e-06
1.695509095e-06
1.692154029e-06
1.688653706e-06
1.685003518e-06
1.681197946e-06
1.677231444e-06
1.673098572e-06
1.66879397e-06
1.664312336e-06
1.659648433e-06
1.654797097e-06
1.649753255e-06
1.644511937e-06
1.639068292e-06
1.633417609e-06
1.627555329e-06
1.621477068e-06
1.615178634e-06
1.608656046e-06
1.601905549e-06
1.594923638e-06
1.587707069e-06
1.580252879e-06
1.572558395e-06
1.56462124e-06
1.55643934e-06
1.548010915e-06
1.539334456e-06
1.530408683e-06
1.521232473e-06
1.511804726e-06
1.502124192e-06
1.492189332e-06
1.481998233e-06
1.471544029e-06
1.460787908e-06
1.449738514e-06
1.439772026e-06
1.43138593e-06
1.420954966e-06
1.409377458e-06
1.397637554e-06
1.385726926e-06
1.373645397e-06
1.361397995e-06
1.348992022e-06
1.33643591e-06
1.323738882e-06
1.310910826e-06
1.297962216e-06
1.284904043e-06
1.271747758e-06
1.258505229e-06
1.245188688e-06
1.231810692e-06
1.218384075e-06
1.204921911e-06
1.191437475e-06
1.177944203e-06
1.164455638e-06
1.150985408e-06
1.137547176e-06
1.124154604e-06
1.110821318e-06
1.097560878e-06
1.084386741e-06
1.071312236e-06
1.058350548e-06
1.045514703e-06
1.032817559e-06
1.020271824e-06
1.007890094e-06
9.956849143e-07
9.836688858e-07
9.718548304e-07
9.602560062e-07
9.488863915e-07
9.377610285e-07
9.268963325e-07
9.163101929e-07
9.060214741e-07
8.960484497e-07
8.864060408e-07
8.771027345e-07
8.681396653e-07
8.595158986e-07
8.512449701e-07
8.433883506e-07
8.361168354e-07
8.298373051e-07
8.255050492e-07
)
;

boundaryField
{
    base
    {
        type            empty;
    }
    outlet
    {
        type            zeroGradient;
    }
    inlet
    {
        type            fixedValue;
        value           uniform 0;
    }
}


// ************************************************************************* //
