/*--------------------------------*- C++ -*----------------------------------*\
| =========                 |                                                 |
| \\      /  F ield         | OpenFOAM: The Open Source CFD Toolbox           |
|  \\    /   O peration     | Version:  v1712                                 |
|   \\  /    A nd           | Web:      www.OpenFOAM.com                      |
|    \\/     M anipulation  |                                                 |
\*---------------------------------------------------------------------------*/
FoamFile
{
    version     2.0;
    format      ascii;
    class       volScalarField;
    location    "0.001";
    object      N2;
}
// * * * * * * * * * * * * * * * * * * * * * * * * * * * * * * * * * * * * * //

dimensions      [0 0 0 0 0 0 0];


internalField   nonuniform List<scalar> 
1500
(
0.7451250992
0.7451250992
0.7451250991
0.7451250991
0.7451250991
0.7451250991
0.7451250992
0.7451250992
0.7451250992
0.7451250992
0.7451250991
0.7451250992
0.7451250992
0.7451250991
0.7451250991
0.7451250991
0.7451250991
0.7451250991
0.7451250991
0.7451250991
0.7451250991
0.7451250991
0.7451250992
0.7451250992
0.7451250992
0.7451250992
0.7451250991
0.7451250991
0.7451250991
0.7451250991
0.7451250991
0.7451250992
0.7451250992
0.7451250992
0.7451250992
0.7451250992
0.7451250992
0.7451250992
0.7451250992
0.7451250992
0.7451250991
0.7451250991
0.7451250991
0.7451250991
0.7451250991
0.7451250991
0.7451250991
0.7451250991
0.7451250992
0.7451250992
0.7451250992
0.7451250992
0.7451250992
0.7451250992
0.7451250992
0.7451250992
0.7451250992
0.7451250992
0.7451250992
0.7451250992
0.7451250992
0.7451250992
0.7451250992
0.7451250992
0.7451250991
0.7451250992
0.7451250992
0.7451250992
0.7451250992
0.7451250992
0.7451250992
0.7451250992
0.7451250992
0.7451250992
0.7451250992
0.7451250992
0.7451250992
0.7451250991
0.7451250991
0.7451250991
0.7451250992
0.7451250991
0.7451250991
0.7451250991
0.7451250991
0.7451250991
0.7451250991
0.7451250992
0.7451250992
0.7451250992
0.7451250992
0.7451250992
0.7451250992
0.7451250991
0.7451250991
0.7451250991
0.7451250991
0.7451250991
0.7451250991
0.7451250992
0.7451250992
0.7451250992
0.7451250992
0.7451250992
0.7451250992
0.7451250992
0.7451250992
0.7451250992
0.7451250992
0.7451250991
0.7451250991
0.7451250991
0.7451250992
0.7451250992
0.7451250992
0.7451250992
0.7451250991
0.7451250991
0.7451250991
0.7451250991
0.7451250991
0.7451250991
0.7451250991
0.7451250991
0.7451250992
0.7451250992
0.7451250992
0.7451250992
0.7451250991
0.7451250991
0.7451250992
0.7451250991
0.7451250992
0.7451250991
0.7451250991
0.7451250992
0.7451250992
0.7451250991
0.7451250992
0.7451250992
0.7451250992
0.7451250992
0.7451250991
0.7451250991
0.7451250991
0.7451250991
0.7451250991
0.7451250991
0.7451250991
0.7451250992
0.7451250992
0.7451250992
0.7451250992
0.7451250991
0.7451250991
0.7451250991
0.7451250991
0.7451250991
0.7451250991
0.7451250991
0.7451250991
0.7451250991
0.7451250991
0.7451250991
0.7451250991
0.7451250991
0.7451250991
0.7451250992
0.7451250992
0.7451250992
0.7451250992
0.7451250992
0.7451250992
0.7451250992
0.7451250992
0.7451250992
0.7451250992
0.7451250992
0.7451250992
0.7451250992
0.7451250991
0.7451250991
0.7451250991
0.7451250991
0.7451250991
0.7451250991
0.7451250991
0.7451250991
0.7451250992
0.7451250992
0.7451250992
0.7451250992
0.7451250992
0.7451250992
0.7451250992
0.7451250992
0.7451250992
0.7451250992
0.7451250992
0.7451250992
0.7451250992
0.7451250992
0.7451250991
0.7451250991
0.7451250991
0.7451250991
0.7451250991
0.7451250991
0.7451250991
0.7451250991
0.7451250991
0.7451250991
0.7451250991
0.7451250992
0.7451250992
0.7451250992
0.7451250992
0.7451250992
0.7451250992
0.7451250992
0.7451250992
0.7451250992
0.7451250992
0.7451250992
0.7451250992
0.7451250992
0.7451250992
0.7451250992
0.7451250992
0.7451250992
0.7451250991
0.7451250991
0.7451250991
0.7451250991
0.7451250991
0.7451250991
0.7451250991
0.7451250991
0.7451250991
0.7451250991
0.7451250992
0.7451250992
0.7451250992
0.7451250992
0.7451250992
0.7451250992
0.7451250992
0.7451250991
0.7451250991
0.7451250991
0.7451250991
0.7451250991
0.7451250991
0.7451250991
0.7451250992
0.7451250992
0.7451250992
0.7451250992
0.7451250992
0.7451250992
0.7451250991
0.7451250992
0.7451250991
0.7451250991
0.7451250992
0.7451250992
0.7451250992
0.7451250992
0.7451250992
0.7451250991
0.7451250991
0.7451250991
0.7451250991
0.7451250991
0.7451250991
0.7451250991
0.7451250991
0.7451250991
0.7451250991
0.7451250991
0.7451250991
0.7451250991
0.7451250991
0.7451250991
0.7451250991
0.7451250991
0.7451250991
0.7451250991
0.7451250991
0.7451250991
0.7451250992
0.7451250992
0.7451250992
0.7451250992
0.7451250992
0.7451250992
0.7451250992
0.7451250992
0.7451250992
0.7451250992
0.7451250992
0.7451250992
0.7451250992
0.7451250992
0.7451250992
0.7451250992
0.7451250992
0.7451250992
0.7451250992
0.7451250992
0.7451250992
0.7451250992
0.7451250992
0.7451250992
0.7451250992
0.7451250991
0.7451250991
0.7451250991
0.7451250991
0.7451250991
0.7451250991
0.7451250991
0.7451250991
0.7451250991
0.7451250992
0.7451250992
0.7451250992
0.7451250992
0.7451250992
0.7451250992
0.7451250992
0.7451250992
0.7451250992
0.7451250991
0.7451250991
0.7451250991
0.7451250992
0.7451250992
0.7451250992
0.7451250992
0.7451250992
0.7451250992
0.7451250992
0.7451250992
0.7451250992
0.7451250992
0.7451250992
0.7451250992
0.7451250992
0.7451250992
0.7451250991
0.7451250991
0.7451250991
0.7451250991
0.7451250991
0.7451250991
0.7451250991
0.7451250991
0.7451250991
0.7451250992
0.7451250992
0.7451250992
0.7451250992
0.7451250992
0.7451250991
0.7451250992
0.7451250992
0.7451250992
0.7451250992
0.7451250992
0.7451250991
0.7451250992
0.7451250992
0.7451250992
0.7451250992
0.7451250992
0.7451250992
0.7451250992
0.7451250992
0.7451250992
0.7451250992
0.7451250992
0.7451250992
0.7451250992
0.7451250991
0.7451250991
0.7451250991
0.7451250991
0.7451250991
0.7451250991
0.7451250991
0.7451250991
0.7451250991
0.7451250991
0.7451250991
0.7451250992
0.7451250991
0.7451250991
0.7451250991
0.7451250991
0.7451250991
0.7451250991
0.7451250991
0.7451250991
0.7451250991
0.7451250991
0.7451250991
0.7451250991
0.7451250992
0.7451250992
0.7451250991
0.7451250992
0.7451250991
0.7451250991
0.7451250992
0.7451250992
0.7451250992
0.7451250992
0.7451250992
0.7451250992
0.7451250992
0.7451250992
0.7451250992
0.7451250992
0.7451250992
0.7451250992
0.7451250992
0.7451250992
0.7451250992
0.7451250992
0.7451250992
0.7451250992
0.7451250992
0.7451250992
0.7451250992
0.7451250992
0.7451250992
0.7451250992
0.7451250992
0.7451250992
0.7451250992
0.7451250992
0.7451250992
0.7451250992
0.7451250992
0.7451250991
0.7451250991
0.7451250991
0.7451250991
0.7451250991
0.7451250991
0.7451250991
0.7451250991
0.7451250991
0.7451250991
0.7451250992
0.7451250992
0.7451250992
0.7451250992
0.7451250992
0.7451250992
0.7451250992
0.7451250992
0.7451250992
0.7451250992
0.7451250992
0.7451250992
0.7451250992
0.7451250992
0.7451250992
0.7451250991
0.7451250991
0.7451250991
0.7451250991
0.7451250991
0.7451250991
0.7451250991
0.7451250991
0.7451250991
0.7451250991
0.7451250991
0.7451250991
0.7451250992
0.7451250992
0.7451250992
0.7451250992
0.7451250992
0.7451250992
0.7451250992
0.7451250991
0.7451250991
0.7451250991
0.7451250991
0.7451250991
0.7451250991
0.7451250991
0.7451250991
0.7451250991
0.7451250991
0.7451250991
0.7451250991
0.7451250991
0.7451250991
0.7451250991
0.7451250991
0.7451250991
0.7451250991
0.7451250991
0.7451250991
0.7451250991
0.7451250991
0.7451250991
0.7451250992
0.7451250991
0.7451250991
0.7451250991
0.7451250991
0.7451250991
0.7451250991
0.7451250991
0.7451250991
0.7451250991
0.7451250991
0.7451250991
0.7451250991
0.7451250991
0.7451250991
0.7451250991
0.7451250991
0.7451250991
0.7451250992
0.7451250992
0.7451250992
0.7451250992
0.7451250992
0.7451250992
0.7451250992
0.7451250992
0.7451250992
0.7451250992
0.7451250992
0.7451250992
0.7451250992
0.7451250992
0.7451250992
0.7451250992
0.7451250992
0.7451250992
0.7451250991
0.7451250991
0.7451250991
0.7451250992
0.7451250992
0.7451250991
0.7451250992
0.7451250992
0.7451250992
0.7451250992
0.7451250992
0.7451250992
0.7451250992
0.7451250991
0.7451250991
0.7451250991
0.7451250991
0.7451250991
0.7451250991
0.7451250991
0.7451250991
0.7451250991
0.7451250991
0.7451250992
0.7451250992
0.7451250992
0.7451250992
0.7451250992
0.7451250992
0.7451250992
0.7451250992
0.7451250992
0.7451250992
0.7451250992
0.7451250992
0.7451250992
0.7451250992
0.7451250992
0.7451250991
0.7451250991
0.7451250991
0.7451250991
0.7451250991
0.7451250991
0.7451250991
0.7451250991
0.7451250991
0.7451250991
0.7451250991
0.7451250991
0.7451250991
0.7451250991
0.7451250991
0.7451250991
0.7451250991
0.7451250991
0.7451250991
0.7451250991
0.7451250991
0.7451250991
0.7451250992
0.7451250992
0.7451250992
0.7451250992
0.7451250992
0.7451250992
0.7451250992
0.7451250992
0.7451250991
0.7451250991
0.7451250991
0.7451250991
0.7451250991
0.7451250991
0.7451250991
0.7451250991
0.7451250992
0.7451250992
0.7451250992
0.7451250992
0.7451250992
0.7451250992
0.7451250992
0.7451250992
0.7451250992
0.7451250992
0.7451250992
0.7451250992
0.7451250992
0.7451250992
0.7451250992
0.7451250992
0.7451250992
0.7451250992
0.7451250992
0.7451250992
0.7451250992
0.7451250992
0.7451250992
0.7451250992
0.7451250992
0.7451250992
0.7451250992
0.7451250992
0.7451250992
0.7451250992
0.7451250992
0.7451250992
0.7451250992
0.7451250992
0.7451250992
0.7451250992
0.7451250992
0.7451250993
0.7451250993
0.7451250993
0.7451250994
0.7451250995
0.7451250996
0.7451250997
0.7451250999
0.7451251002
0.7451251005
0.7451251009
0.7451251015
0.7451251022
0.7451251032
0.7451251045
0.7451251062
0.7451251084
0.7451251113
0.7451251152
0.7451251202
0.7451251268
0.7451251354
0.7451251466
0.7451251612
0.7451251803
0.7451252051
0.7451252372
0.7451252791
0.745125334
0.745125404
0.7451254936
0.7451256124
0.7451257686
0.7451259721
0.7451262371
0.7451265818
0.7451270299
0.7451276122
0.7451283683
0.7451293496
0.7451306225
0.7451322727
0.7451344105
0.7451371783
0.745140759
0.7451453875
0.7451513643
0.7451590728
0.7451689992
0.745181755
0.7451981012
0.7452189613
0.7452453641
0.7452783467
0.7453190217
0.7453672082
0.7454222809
0.7454876304
0.7455631644
0.7456438369
0.7457216913
0.7457848657
0.7458185098
0.7458186622
0.7458009651
0.7457360211
0.7456458787
0.7455473676
0.7454339918
0.7452908486
0.7451173601
0.7449170712
0.7446903633
0.7444417884
0.7441790638
0.743913028
0.7436567299
0.7434242984
0.7432302645
0.7430900693
0.7430171964
0.7429989793
0.7430086207
0.7430122351
0.7430192083
0.7430492022
0.7431456808
0.7432843949
0.7434351918
0.7435943379
0.743756855
0.7439193069
0.7440797192
0.7442376543
0.74439932
0.7444836293
0.7445638633
0.744672939
0.744772754
0.7448703549
0.7449228488
0.7449658517
0.7450051887
0.7450528578
0.7450932961
0.7451281488
0.7451580607
0.7451836216
0.7452053676
0.7452237821
0.7452392977
0.7452522997
0.7452631299
0.7452720901
0.745279447
0.7452854357
0.7452902642
0.7452941178
0.7452971629
0.745299551
0.7453014226
0.7453029096
0.7453041323
0.7453051886
0.7453063438
0.7453044637
0.7453045283
0.7453021758
0.7453011736
0.7452999622
0.7452986758
0.7452973226
0.7452959082
0.7452944426
0.7452929388
0.7452914112
0.7452898746
0.7452883442
0.7452868355
0.7452853646
0.7452839459
0.7452825896
0.7452813827
0.7452791116
0.7452774691
0.745275813
0.7452741835
0.7452725761
0.745270988
0.745269418
0.7452678654
0.7452663298
0.7452648114
0.7452633103
0.7452618268
0.7452603612
0.7452589136
0.7452574845
0.7452560739
0.7452546821
0.7452533092
0.7452519553
0.7452506205
0.7452493047
0.745248008
0.7452467302
0.7452454714
0.7452442312
0.7452430097
0.7452418066
0.7452406216
0.7452394546
0.7452383052
0.7452371732
0.7452360582
0.7452349599
0.745233878
0.7452328121
0.7452317619
0.7452307269
0.7452297068
0.7452287011
0.7452277096
0.7452267318
0.7452257673
0.7452248157
0.7452238768
0.74522295
0.7452220351
0.7452211318
0.7452202396
0.7452193583
0.7452184875
0.7452176271
0.7452167766
0.7452159359
0.7452151048
0.7452142829
0.7452134701
0.7452126662
0.745211871
0.7452110844
0.7452103061
0.7452095362
0.7452087744
0.7452080206
0.7452072748
0.7452065369
0.7452058068
0.7452050843
0.7452043696
0.7452036625
0.7452029629
0.7452022709
0.7452015863
0.7452009093
0.7452002397
0.7451995775
0.7451989227
0.7451982753
0.7451976353
0.7451970026
0.7451963772
0.7451957592
0.7451951485
0.7451945451
0.7451939489
0.74519336
0.7451927783
0.7451922038
0.7451916365
0.7451910764
0.7451905235
0.7451899777
0.7451894389
0.7451889073
0.7451883827
0.7451878651
0.7451873545
0.7451868508
0.7451863541
0.7451858643
0.7451853813
0.7451849051
0.7451844357
0.7451839731
0.7451835171
0.7451830678
0.7451826251
0.7451821889
0.7451817592
0.745181336
0.7451809191
0.7451805085
0.7451801042
0.7451797061
0.745179314
0.745178928
0.7451785479
0.7451781737
0.7451778052
0.7451774423
0.745177085
0.7451767331
0.7451763866
0.7451760452
0.7451757089
0.7451753776
0.745175051
0.7451747291
0.7451744117
0.7451740986
0.7451737897
0.7451734848
0.7451731838
0.7451728865
0.7451725927
0.7451723022
0.7451720148
0.7451717304
0.7451714488
0.7451711697
0.745170893
0.7451706184
0.7451703459
0.7451700752
0.745169806
0.7451695383
0.7451692718
0.7451690063
0.7451687417
0.7451684777
0.7451682142
0.7451679511
0.7451676881
0.7451674251
0.7451671619
0.7451668984
0.7451666344
0.7451663699
0.7451661047
0.7451658386
0.7451655716
0.7451653035
0.7451650344
0.745164764
0.7451644924
0.7451642194
0.7451639451
0.7451636694
0.7451633922
0.7451631136
0.7451628335
0.7451625519
0.7451622689
0.7451619846
0.7451616988
0.7451614117
0.7451611233
0.7451608337
0.745160543
0.7451602512
0.7451599584
0.7451596648
0.7451593705
0.7451590755
0.74515878
0.7451584841
0.7451581879
0.7451578916
0.7451575954
0.7451572993
0.7451570035
0.7451567082
0.7451564135
0.7451561197
0.7451558267
0.7451555349
0.7451552444
0.7451549553
0.7451546678
0.745154382
0.7451540981
0.7451538163
0.7451535367
0.7451532594
0.7451529847
0.7451527126
0.7451524433
0.7451521769
0.7451519135
0.7451516533
0.7451513963
0.7451511427
0.7451508926
0.7451506461
0.7451504033
0.7451501642
0.7451499289
0.7451496976
0.7451494702
0.7451492468
0.7451490275
0.7451488123
0.7451486013
0.7451483944
0.7451481917
0.7451479933
0.745147799
0.745147609
0.7451474232
0.7451472417
0.7451470643
0.7451468911
0.745146722
0.7451465571
0.7451463962
0.7451462394
0.7451460865
0.7451459376
0.7451457926
0.7451456514
0.745145514
0.7451453803
0.7451452502
0.7451451236
0.7451450005
0.7451448808
0.7451447645
0.7451446513
0.7451445413
0.7451444344
0.7451443304
0.7451442293
0.745144131
0.7451440354
0.7451439424
0.7451438518
0.7451437637
0.7451436779
0.7451435943
0.7451435128
0.7451434333
0.7451433558
0.74514328
0.745143206
0.7451431336
0.7451430627
0.7451429932
0.745142925
0.7451428581
0.7451427923
0.7451427275
0.7451426636
0.7451426006
0.7451425383
0.7451424766
0.7451424155
0.7451423548
0.7451422945
0.7451422345
0.7451421746
0.7451421149
0.7451420551
0.7451419953
0.7451419353
0.745141875
0.7451418144
0.7451417534
0.7451416919
0.7451416299
0.7451415672
0.7451415038
0.7451414396
0.7451413746
0.7451413087
0.7451412418
0.7451411739
0.7451411049
0.7451410348
0.7451409635
0.7451408911
0.7451408173
0.7451407423
0.7451406659
0.7451405882
0.7451405092
0.7451404287
0.7451403468
0.7451402635
0.7451401787
0.7451400925
0.7451400049
0.7451399159
0.7451398254
0.7451397335
0.7451396403
0.7451395456
0.7451394496
0.7451393524
0.7451392538
0.745139154
0.745139053
0.7451389509
0.7451388477
0.7451387434
0.7451386381
0.745138532
0.7451384249
0.7451383171
0.7451382085
0.7451380993
0.7451379895
0.7451378792
0.7451377685
0.7451376574
0.745137546
0.7451374345
0.7451373228
0.7451372112
0.7451370996
0.7451369881
0.7451368769
0.745136766
0.7451366555
0.7451365454
0.7451364359
0.7451363271
0.745136219
0.7451361117
0.7451360053
0.7451358998
0.7451357954
0.7451356921
0.74513559
0.7451354891
0.7451353895
0.7451352913
0.7451351945
0.7451350993
0.7451350056
0.7451349134
0.745134823
0.7451347342
0.7451346471
0.7451345616
0.7451344779
0.7451343957
0.7451343151
0.7451342358
0.7451341577
0.7451340804
0.7451340035
0.7451339265
0.7451338487
0.7451337693
0.7451336873
0.745133602
0.7451335128
0.7451334202
0.7451333261
0.7451332352
0.7451331557
0.7451330954
0.7451330985
0.7451330967
0.7451330798
0.7451330279
0.7451329521
0.7451328788
0.7451328028
0.7451327231
0.7451326409
0.7451325604
0.7451324895
0.7451324368
0.7451324426
0.745132441
0.7451324239
0.7451323684
0.7451322861
0.7451322096
0.7451321422
0.7451320908
0.7451320958
0.7451320919
0.7451320633
0.7451319909
0.7451319086
0.7451318372
0.7451317851
0.7451317953
0.7451317771
0.7451317889
0.7451317825
0.7451317903
0.7451317636
0.7451317341
0.7451316791
0.7451316155
0.7451315467
0.7451314834
0.7451314356
0.7451314397
0.7451314369
0.7451314166
0.745131371
0.7451313833
0.7451313824
0.7451313864
0.7451313861
0.7451313813
0.745131357
0.7451313164
0.7451312595
0.7451312161
0.7451311872
0.7451312095
0.7451312119
0.7451311962
0.7451311648
0.74513111
0.7451310505
0.7451309904
0.7451309352
0.7451308923
0.7451308957
0.7451308955
0.7451308973
0.7451308981
0.7451309021
0.7451308939
0.745130891
0.7451308742
0.7451308238
0.745130784
0.7451307275
0.7451306659
0.7451306195
0.7451306239
0.745130623
0.7451306116
0.7451305722
0.7451305173
0.7451304847
0.7451305016
0.7451305024
0.7451304828
0.7451304444
0.7451303845
0.7451303256
0.7451302738
0.745130239
0.7451302472
0.7451302465
0.7451302344
0.7451301901
0.7451301258
0.7451300802
0.7451300833
0.745130082
0.7451300691
0.745130029
0.745129986
0.7451299958
0.7451299858
0.7451299913
0.7451299916
0.7451299883
0.7451299673
0.7451299192
0.7451299213
0.7451299214
0.7451299196
0.7451299219
0.7451299205
0.7451299333
0.7451299276
0.7451299246
0.745129935
0.7451299376
0.745129944
0.7451299433
0.7451299534
0.74512995
0.7451299622
0.7451299595
0.7451299726
0.74512997
0.7451299841
0.7451299837
0.745129999
0.745130001
0.7451300138
0.7451300158
0.7451300302
0.7451300318
0.7451300525
0.74513005
0.7451300624
0.7451300764
0.7451300756
0.7451300993
0.7451300979
0.7451301147
0.7451301166
0.7451301328
0.7451301292
0.7451301458
0.7451301408
0.7451301389
0.7451301167
0.7451300903
0.7451300646
0.7451300368
0.7451300068
0.7451299749
0.7451299403
0.7451299025
0.7451298616
0.7451298193
0.7451297779
0.7451297397
0.7451297049
0.7451296722
0.7451296463
0.7451296394
0.7451296256
0.7451296105
0.7451295977
0.7451295802
0.7451295738
0.7451295854
0.7451295827
0.7451295741
0.7451295849
0.7451295859
0.7451296128
0.745129614
0.745129658
0.7451297049
0.7451297689
0.7451298507
0.7451299521
0.7451300757
0.7451302245
0.7451304014
0.7451306096
0.7451308527
0.7451311343
0.7451314588
0.7451318305
0.7451322546
0.7451327363
0.7451332816
0.7451338967
0.7451345884
0.7451353639
0.7451362311
0.7451371983
0.7451382745
0.7451394695
0.7451407935
0.7451422577
0.7451438741
0.7451456555
0.7451476158
0.7451497701
0.7451521344
0.7451547265
0.7451575656
0.7451606732
0.7451640853
0.7451678723
0.7451712647
0.7451744564
0.7451787244
0.7451835842
0.7451888271
0.7451944934
0.7452006149
0.7452072231
0.7452143437
0.7452219701
0.7452302261
0.7452367271
0.7452449703
0.7452545913
0.745265018
0.7452761838
0.7452881166
0.7453008543
0.7453144393
0.745328916
0.7453443302
0.7453607289
0.7453781605
0.745396675
0.7454163238
0.7454371594
0.7454592361
0.7454826091
0.7455073353
0.7455334724
0.7455610797
0.7455902174
0.7456209469
0.7456533305
0.7456874316
0.7457233142
0.7457610433
0.7458006846
0.7458423041
0.7458859688
0.7459317456
0.7459797021
0.7460299063
0.7460824264
0.7461373313
0.7461946904
0.7462545732
0.7463170487
0.7463822141
0.7464503169
0.746521183
0.7465866211
0.7466430459
0.7467138042
0.7467936401
0.7468762652
0.7469617464
0.7470501392
0.7471414823
0.7472358048
0.7473331305
0.7474334786
0.7475368636
0.7476432952
0.7477527784
0.7478653128
0.7479808932
0.7480995089
0.7482211435
0.7483457754
0.7484733769
0.7486039146
0.748737349
0.7488736346
0.7490127197
0.7491545463
0.74929905
0.74944616
0.7495957987
0.7497478821
0.7499023189
0.7500590106
0.7502178508
0.7503787249
0.7505415089
0.7507060677
0.7508722542
0.7510399059
0.7512088425
0.751378861
0.7515497315
0.7517211918
0.7518929439
0.7520646564
0.7522359784
0.7524065704
0.7525761516
0.7527445408
0.7529116407
0.7530772817
0.7532408094
0.7534002627
0.7535508571
0.7536820562
0.7537714795
)
;

boundaryField
{
    base
    {
        type            empty;
    }
    outlet
    {
        type            zeroGradient;
    }
    inlet
    {
        type            fixedValue;
        value           uniform 0.7451250992;
    }
}


// ************************************************************************* //
