/*--------------------------------*- C++ -*----------------------------------*\
| =========                 |                                                 |
| \\      /  F ield         | OpenFOAM: The Open Source CFD Toolbox           |
|  \\    /   O peration     | Version:  v1712                                 |
|   \\  /    A nd           | Web:      www.OpenFOAM.com                      |
|    \\/     M anipulation  |                                                 |
\*---------------------------------------------------------------------------*/
FoamFile
{
    version     2.0;
    format      ascii;
    class       volScalarField;
    location    "0.001";
    object      O;
}
// * * * * * * * * * * * * * * * * * * * * * * * * * * * * * * * * * * * * * //

dimensions      [0 0 0 0 0 0 0];


internalField   nonuniform List<scalar> 
1500
(
5.602198069e-48
1.315308827e-47
2.08100398e-47
2.837877491e-47
3.590253403e-47
4.363578966e-47
5.106948855e-47
5.888648162e-47
6.720610658e-47
7.354445697e-47
8.290229699e-47
8.983961522e-47
9.690157244e-47
1.042622744e-46
1.129099179e-46
1.211893225e-46
1.28278364e-46
1.356189676e-46
1.42451904e-46
1.490843997e-46
1.551956106e-46
1.609571771e-46
1.670932165e-46
1.746748857e-46
1.799794216e-46
1.856506478e-46
1.917265956e-46
1.997853087e-46
2.044033908e-46
2.091678484e-46
2.155245932e-46
2.212943936e-46
2.281807197e-46
2.331931845e-46
2.38847129e-46
2.453325251e-46
2.503640415e-46
2.575015673e-46
2.640972171e-46
2.705030788e-46
2.767231791e-46
2.841113016e-46
2.952984997e-46
3.046759135e-46
3.140081441e-46
3.225381382e-46
3.32092454e-46
3.432668944e-46
3.54568863e-46
3.684841713e-46
3.797615882e-46
3.897708343e-46
3.994060133e-46
4.083132117e-46
4.163849159e-46
4.23341531e-46
4.301324198e-46
4.377375286e-46
4.44245178e-46
4.49704161e-46
4.532945901e-46
4.563822699e-46
4.586402584e-46
4.602030619e-46
4.612457918e-46
4.617742956e-46
4.618602882e-46
4.615688502e-46
4.609299496e-46
4.601327372e-46
4.587294027e-46
4.574827052e-46
4.559897159e-46
4.545933763e-46
4.530333798e-46
4.516766751e-46
4.505626872e-46
4.491094975e-46
4.480842315e-46
4.470613416e-46
4.461826869e-46
4.453880259e-46
4.446795898e-46
4.440837665e-46
4.435016735e-46
4.4306874e-46
4.426837498e-46
4.423648299e-46
4.42044519e-46
4.418052737e-46
4.416055353e-46
4.41460645e-46
4.413575219e-46
4.412451183e-46
4.411678556e-46
4.411108952e-46
4.41064767e-46
4.410346231e-46
4.410001186e-46
4.409738991e-46
4.409529906e-46
4.409404156e-46
4.409312192e-46
4.409225133e-46
4.409152305e-46
4.409095954e-46
4.409050893e-46
4.409011935e-46
4.408977038e-46
4.408940371e-46
4.40890915e-46
4.408881043e-46
4.408851257e-46
4.408814001e-46
4.408788367e-46
4.408760694e-46
4.408725063e-46
4.408692187e-46
4.40864994e-46
4.408624209e-46
4.40859324e-46
4.408564822e-46
4.408535591e-46
4.408500827e-46
4.408454182e-46
4.408416535e-46
4.40837669e-46
4.408341591e-46
4.408303465e-46
4.408254451e-46
4.408213598e-46
4.40817385e-46
4.408130242e-46
4.408086972e-46
4.408042852e-46
4.40799369e-46
4.407951478e-46
4.407904018e-46
4.407858213e-46
4.407807405e-46
4.40775643e-46
4.40771538e-46
4.407658537e-46
4.407603138e-46
4.407551279e-46
4.407493136e-46
4.407440552e-46
4.407384492e-46
4.407325615e-46
4.407258446e-46
4.407190427e-46
4.407139151e-46
4.407072506e-46
4.406996246e-46
4.406929899e-46
4.406868654e-46
4.406804823e-46
4.406740672e-46
4.406672741e-46
4.406606553e-46
4.406534413e-46
4.406462513e-46
4.406391487e-46
4.406323661e-46
4.406248344e-46
4.406173316e-46
4.4061007e-46
4.406010898e-46
4.405927313e-46
4.405845861e-46
4.405764182e-46
4.405690474e-46
4.405611496e-46
4.405536653e-46
4.405453578e-46
4.405379473e-46
4.40530081e-46
4.405223941e-46
4.405147579e-46
4.405054389e-46
4.404962728e-46
4.40488126e-46
4.404774651e-46
4.404701506e-46
4.404611405e-46
4.404535077e-46
4.404442549e-46
4.404344521e-46
4.404255467e-46
4.404166645e-46
4.404076689e-46
4.403991617e-46
4.403912042e-46
4.403826761e-46
4.403741809e-46
4.403658994e-46
4.403566323e-46
4.403483624e-46
4.403399528e-46
4.403320839e-46
4.403238062e-46
4.403148428e-46
4.403048544e-46
4.402930608e-46
4.402835075e-46
4.402737845e-46
4.40264837e-46
4.402560842e-46
4.402473094e-46
4.40238128e-46
4.402278264e-46
4.402167111e-46
4.402073894e-46
4.40197394e-46
4.401858623e-46
4.401762508e-46
4.401666639e-46
4.401573778e-46
4.401486874e-46
4.401386466e-46
4.401298106e-46
4.401202637e-46
4.401111976e-46
4.401015026e-46
4.400925064e-46
4.400824983e-46
4.400695874e-46
4.400588532e-46
4.400490805e-46
4.400386353e-46
4.400295636e-46
4.400170672e-46
4.400075694e-46
4.399981461e-46
4.399890573e-46
4.399802082e-46
4.399705521e-46
4.399620723e-46
4.399523387e-46
4.399423931e-46
4.399304874e-46
4.399187936e-46
4.399078409e-46
4.398987973e-46
4.39890224e-46
4.398809205e-46
4.398699113e-46
4.398595796e-46
4.398499984e-46
4.398411105e-46
4.398313511e-46
4.398219374e-46
4.398133947e-46
4.398037461e-46
4.397931221e-46
4.397834542e-46
4.397739198e-46
4.397633385e-46
4.397548939e-46
4.397457762e-46
4.39736097e-46
4.397264476e-46
4.397172963e-46
4.39708799e-46
4.396982555e-46
4.396888329e-46
4.396789731e-46
4.396703263e-46
4.396610874e-46
4.396500423e-46
4.39639797e-46
4.396307908e-46
4.396218867e-46
4.396126725e-46
4.396032719e-46
4.395929314e-46
4.395838529e-46
4.395751578e-46
4.395664247e-46
4.395573209e-46
4.395484644e-46
4.395397303e-46
4.395308163e-46
4.395217396e-46
4.395126231e-46
4.395040445e-46
4.394955937e-46
4.394854632e-46
4.394761434e-46
4.394670234e-46
4.394575897e-46
4.394484708e-46
4.394397494e-46
4.394307465e-46
4.394221251e-46
4.394136088e-46
4.394045311e-46
4.393958344e-46
4.393875813e-46
4.393790315e-46
4.393701419e-46
4.39361486e-46
4.393531862e-46
4.393455803e-46
4.393362987e-46
4.393282873e-46
4.393200983e-46
4.393116427e-46
4.393034585e-46
4.392947189e-46
4.392856233e-46
4.392778546e-46
4.392701537e-46
4.392627134e-46
4.392537276e-46
4.392437144e-46
4.392320138e-46
4.3922383e-46
4.392161286e-46
4.392084668e-46
4.392009192e-46
4.391939386e-46
4.391860435e-46
4.391784846e-46
4.39171093e-46
4.391629148e-46
4.39153774e-46
4.391458768e-46
4.391383207e-46
4.391307465e-46
4.3912319e-46
4.391151682e-46
4.391076299e-46
4.390999617e-46
4.390926446e-46
4.390857257e-46
4.390780012e-46
4.390690584e-46
4.390605098e-46
4.39052777e-46
4.390456443e-46
4.390380054e-46
4.390308392e-46
4.39023806e-46
4.39017087e-46
4.390106511e-46
4.390029313e-46
4.389957496e-46
4.389885425e-46
4.389808253e-46
4.389726544e-46
4.38962524e-46
4.389547902e-46
4.389475552e-46
4.38940819e-46
4.389342442e-46
4.389275231e-46
4.389203288e-46
4.389128726e-46
4.389045324e-46
4.388964029e-46
4.388890833e-46
4.388823995e-46
4.388748976e-46
4.388675926e-46
4.388610111e-46
4.388540007e-46
4.38847471e-46
4.388404421e-46
4.388340802e-46
4.388271318e-46
4.388203779e-46
4.388137161e-46
4.388070556e-46
4.388002823e-46
4.387938595e-46
4.387865143e-46
4.387800499e-46
4.387728058e-46
4.387658306e-46
4.387598836e-46
4.387536086e-46
4.387455484e-46
4.387376966e-46
4.387300174e-46
4.387233092e-46
4.387166851e-46
4.387101107e-46
4.387038904e-46
4.386976399e-46
4.386913027e-46
4.386846906e-46
4.386785824e-46
4.386723115e-46
4.386660279e-46
4.386598164e-46
4.386538484e-46
4.386477447e-46
4.386411466e-46
4.386351456e-46
4.386289681e-46
4.386225061e-46
4.386164079e-46
4.386103294e-46
4.386043446e-46
4.385984274e-46
4.385913427e-46
4.385853051e-46
4.385777019e-46
4.385719978e-46
4.385660548e-46
4.385599252e-46
4.385539688e-46
4.385482869e-46
4.385421823e-46
4.385364661e-46
4.385306678e-46
4.385250513e-46
4.385190554e-46
4.38512954e-46
4.385072768e-46
4.385011414e-46
4.384950065e-46
4.384890661e-46
4.384831688e-46
4.38477227e-46
4.384713503e-46
4.384655547e-46
4.384593871e-46
4.38453712e-46
4.384481105e-46
4.384426044e-46
4.384365085e-46
4.384308084e-46
4.384253926e-46
4.384198865e-46
4.384142906e-46
4.384085985e-46
4.38403014e-46
4.383976337e-46
4.383923133e-46
4.383874292e-46
4.383817884e-46
4.383759903e-46
4.383702547e-46
4.383635434e-46
4.383572213e-46
4.383509169e-46
4.383451412e-46
4.383395278e-46
4.383344022e-46
4.383296359e-46
4.383241476e-46
4.38318744e-46
4.383132905e-46
4.383067722e-46
4.383003067e-46
4.38294136e-46
4.382882432e-46
4.382823859e-46
4.382774402e-46
4.38272984e-46
4.382686714e-46
4.382636098e-46
4.382584075e-46
4.382527712e-46
4.382478562e-46
4.382423713e-46
4.38237285e-46
4.382312163e-46
4.382261479e-46
4.382202224e-46
4.382148817e-46
4.382096026e-46
4.382042314e-46
4.381993887e-46
4.381949325e-46
4.381901565e-46
4.381844256e-46
4.381794193e-46
4.381737643e-46
4.38168686e-46
4.381637334e-46
4.381581864e-46
4.381530064e-46
4.381481172e-46
4.381432627e-46
4.381382003e-46
4.381332101e-46
4.381281226e-46
4.381230948e-46
4.381171837e-46
4.381120491e-46
4.381073365e-46
4.381026072e-46
4.3809787e-46
4.380931696e-46
4.380884695e-46
4.380834188e-46
4.380783254e-46
4.38073795e-46
4.38069196e-46
4.380646165e-46
4.380598389e-46
4.380550765e-46
4.380502158e-46
4.380453306e-46
4.380405701e-46
4.38035839e-46
4.380311838e-46
4.380260889e-46
4.380215485e-46
4.380168763e-46
4.380123483e-46
4.380076944e-46
4.380028189e-46
4.379979219e-46
4.379933456e-46
4.379883981e-46
4.379835413e-46
4.379786821e-46
4.37974272e-46
4.379701777e-46
4.379661547e-46
4.379616708e-46
4.379571286e-46
4.379528289e-46
4.379491432e-46
4.379464178e-46
4.379450739e-46
4.37946637e-46
4.379530437e-46
4.379684348e-46
4.379958434e-46
4.380463699e-46
4.381370652e-46
4.383145424e-46
4.386201845e-46
4.391691516e-46
4.400835529e-46
4.417051247e-46
4.443982687e-46
4.490398827e-46
4.569394945e-46
4.701590641e-46
4.945325761e-46
5.324568126e-46
6.060688391e-46
7.335325015e-46
9.520772142e-46
1.328650173e-45
1.996149068e-45
3.093436452e-45
5.016244592e-45
8.277737292e-45
1.389082261e-44
2.369223844e-44
3.993750952e-44
6.720702519e-44
1.157087188e-43
2.057161427e-43
3.434332133e-43
6.074462573e-43
1.021485808e-42
1.761717659e-42
3.027083676e-42
5.062846121e-42
8.764010465e-42
1.450634252e-41
2.447625875e-41
4.044123713e-41
6.805555082e-41
1.1444354e-40
1.972524526e-40
3.504169842e-40
5.781242063e-40
9.772349782e-40
1.603783532e-39
2.64446843e-39
4.382184258e-39
7.227965072e-39
1.181443941e-38
1.936977339e-38
3.238999851e-38
5.485076981e-38
9.182944868e-38
1.587724131e-37
2.745109303e-37
4.949716233e-37
8.202377748e-37
1.371013668e-36
2.295688809e-36
3.900221853e-36
6.579764559e-36
1.131681744e-35
1.945644066e-35
3.3027288e-35
5.643847781e-35
9.727641949e-35
1.719826283e-34
2.964759282e-34
5.104631065e-34
8.705688308e-34
1.474451732e-33
2.503778285e-33
4.337557021e-33
7.304822082e-33
1.24572533e-32
2.123563554e-32
3.613838084e-32
6.237018473e-32
1.037612034e-31
1.710785487e-31
2.784328737e-31
4.648457621e-31
7.766484676e-31
1.332595018e-30
2.237246668e-30
3.610659835e-30
5.783632567e-30
1.009930094e-29
1.663875724e-29
2.742727164e-29
4.581035634e-29
8.068066484e-29
1.413292794e-28
2.482116758e-28
4.171486501e-28
7.044868997e-28
1.177367019e-27
1.899282395e-27
3.262249386e-27
5.684034857e-27
9.909917324e-27
1.726293968e-26
3.005189455e-26
5.228396483e-26
9.090811638e-26
1.579672304e-25
2.743138785e-25
4.760207361e-25
8.254310707e-25
1.430188614e-24
2.475975768e-24
4.282782146e-24
7.401522208e-24
1.277977807e-23
2.204586163e-23
3.799530524e-23
6.54234081e-23
1.125495296e-22
1.934543563e-22
3.322568864e-22
5.703034035e-22
9.784615359e-22
1.676885821e-21
2.867860283e-21
4.905698825e-21
8.379609701e-21
1.43062047e-20
2.435860606e-20
4.1388386e-20
7.041896581e-20
1.197922984e-19
2.033667144e-19
3.448293784e-19
5.840211935e-19
9.89057504e-19
1.673774642e-18
2.830570032e-18
4.775751772e-18
8.051324865e-18
1.360293463e-17
2.285977698e-17
3.850929689e-17
6.479391977e-17
1.086665045e-16
1.821526423e-16
3.054119185e-16
5.10889561e-16
8.548890247e-16
1.422352463e-15
2.363614674e-15
3.921947759e-15
6.469847166e-15
1.066179351e-14
1.751829767e-14
2.8553441e-14
4.65366259e-14
7.632596354e-14
1.237934356e-13
1.981748704e-13
3.237875812e-13
5.343039537e-13
8.81965807e-13
1.454836824e-12
2.397786714e-12
3.948460591e-12
6.496136135e-12
1.067778981e-11
1.753462021e-11
2.876676532e-11
4.714737499e-11
7.719499316e-11
1.262642021e-10
2.063124901e-10
3.367596769e-10
5.49109605e-10
8.94411366e-10
1.455292377e-09
2.365344817e-09
3.840359487e-09
6.228723032e-09
1.008462139e-08
1.621393535e-08
2.589055922e-08
4.114681653e-08
6.126787698e-08
9.274494539e-08
1.478043618e-07
2.427110519e-07
4.123450483e-07
7.352966778e-07
1.388033894e-06
2.65394293e-06
4.850316876e-06
9.060591428e-06
1.644139376e-05
2.577317704e-05
4.098177017e-05
6.010877258e-05
9.108715014e-05
0.0001380609391
0.0002067437499
0.0003037383409
0.0004350238077
0.0006051678617
0.0008167595675
0.001070110536
0.001363159896
0.001691398426
0.002047613002
0.002422069529
0.002805834819
0.003170523126
0.003527722199
0.003873972639
0.004211882543
0.004528832393
0.004813669275
0.005065125176
0.005283054458
0.005468011306
0.005621366995
0.005745436711
0.005843309323
0.005912742613
0.005962457948
0.005995023032
0.006010666002
0.006012046322
0.006002522534
0.005983728306
0.005956415941
0.005920502627
0.005878482837
0.005831448367
0.005780343412
0.00572597109
0.005669014777
0.005610056234
0.005549590653
0.005488039295
0.005425759945
0.005363055845
0.00530018287
0.005237355801
0.005174753523
0.005112523314
0.00505078447
0.004989630772
0.004929132199
0.004869335397
0.004810262032
0.004751903233
0.004694203834
0.004640915268
0.004585049558
0.004533548445
0.004479918031
0.004427351345
0.004375789963
0.004325195122
0.00427553894
0.004226798984
0.004178954917
0.004131986717
0.00408587376
0.004040593941
0.003996122843
0.003952432342
0.003909488446
0.003867247809
0.003825650373
0.003787403091
0.003747500565
0.003708350063
0.003669921173
0.003632188542
0.003595129903
0.003558725324
0.003522956525
0.003487806515
0.003453259334
0.003419299813
0.003385913476
0.003353086419
0.003320805222
0.0032890569
0.003257828934
0.003227109172
0.003196885791
0.003167147337
0.003137882714
0.003109081101
0.003080732003
0.003052825252
0.00302535094
0.002998299424
0.00297166135
0.002945427655
0.002919589488
0.002894138263
0.002869065631
0.002844363491
0.002820023953
0.002796039335
0.002772402202
0.002749105285
0.002726141518
0.002703504047
0.002681186193
0.002659181457
0.002637483515
0.002616086207
0.00259498354
0.002574169667
0.002553638914
0.002533385733
0.002513404731
0.002493690662
0.002474238383
0.002455042914
0.002436099385
0.002417403033
0.002398949239
0.002380733489
0.002362751372
0.002344998589
0.002327470949
0.00231016435
0.002293074789
0.002276198375
0.002259531291
0.00224306981
0.002226810299
0.00221074921
0.002194883067
0.002179208475
0.002163722115
0.00214842076
0.002133301237
0.002118360441
0.002103595354
0.002089003014
0.00207458052
0.002060325038
0.002046233796
0.002032304087
0.002018533263
0.00200491872
0.001991457918
0.00197814837
0.001964987647
0.001951973374
0.001939103205
0.001926374864
0.001913786121
0.001901334781
0.001889018703
0.001876835786
0.001864783976
0.00185286126
0.001841065671
0.001829395273
0.001817848168
0.001806422508
0.001795116472
0.001783928281
0.001772856195
0.001761898501
0.001751053525
0.001740319621
0.001729695179
0.001719178623
0.001708768407
0.001698463011
0.001688260944
0.001678160755
0.001668161011
0.001658260306
0.001648457267
0.001638750546
0.001629138818
0.001619620787
0.001610195176
0.001600860732
0.001591616234
0.001582460481
0.001573392288
0.001564410498
0.001555513978
0.001546701606
0.001537972285
0.001529324943
0.001520758524
0.001512271994
0.00150386433
0.001495534536
0.001487281631
0.001479104645
0.001471002636
0.001462974673
0.001455019845
0.001447137251
0.001439326005
0.001431585243
0.001423914113
0.001416311779
0.001408777415
0.001401310211
0.001393909369
0.001386574111
0.001379303663
0.001372097266
0.001364954178
0.001357873665
0.001350855001
0.001343897477
0.001337000395
0.001330163067
0.00132338481
0.00131666496
0.001310002855
0.00130339785
0.001296849308
0.001290356593
0.001283919087
0.00127753618
0.001271207267
0.001264931751
0.001258709046
0.001252538576
0.001246419768
0.001240352055
0.001234334882
0.001228367702
0.00122244997
0.001216581152
0.00121076072
0.00120498815
0.001199262926
0.00119358454
0.001187952488
0.001182366273
0.001176825399
0.001171329386
0.001165877751
0.001160470021
0.001155105725
0.0011497844
0.001144505588
0.001139268838
0.001134073699
0.00112891973
0.001123806493
0.001118733554
0.001113700485
0.001108706863
0.001103752271
0.001098836297
0.001093958529
0.001089118566
0.001084316007
0.001079550459
0.001074821531
0.001070128837
0.001065471998
0.001060850638
0.001056264383
0.001051712869
0.001047195732
0.001042712614
0.001038263161
0.001033847025
0.001029463862
0.001025113332
0.001020795096
0.001016508824
0.00101225419
0.001008030872
0.001003838551
0.0009996769126
0.0009955456478
0.000991444451
0.0009873730214
0.0009833310639
0.0009793182833
0.0009753343916
0.0009713791063
0.0009674521478
0.0009635532378
0.0009596821049
0.0009558384846
0.0009520221096
0.0009482327207
0.0009444700639
0.0009407338866
0.0009370239414
0.0009333399821
0.000929681769
0.0009260490661
0.0009224416398
0.0009188592615
0.0009153017049
0.0009117687474
0.000908260171
0.00090477576
0.0009013153022
0.0008978785885
0.0008944654146
0.0008910755781
0.0008877088787
0.0008843651214
0.0008810441133
0.0008777456655
0.0008744695899
0.0008712157013
0.0008679838196
0.0008647737673
0.0008615853676
0.0008584184464
0.0008552728332
0.0008521483611
0.0008490448636
0.0008459621778
0.000842900143
0.000839858599
0.0008368373907
0.0008338363643
0.0008308553671
0.0008278942497
0.0008249528635
0.0008220310621
0.0008191287021
0.0008162456416
0.00081338174
0.0008105368584
0.0008077108604
0.0008049036097
0.0008021149744
0.0007993448221
0.0007965930205
0.0007938594422
0.0007911439605
0.0007884464482
0.0007857667806
0.0007831048342
0.0007804604868
0.0007778336175
0.0007752241075
0.0007726318373
0.0007700566891
0.0007674985471
0.0007649572964
0.0007624328226
0.000759925012
0.0007574337516
0.000754958931
0.0007525004396
0.0007500581667
0.0007476320035
0.0007452218429
0.0007428275765
0.0007404490978
0.0007380863013
0.0007357390805
0.0007334073321
0.0007310909515
0.0007287898351
0.0007265038797
0.0007242329829
0.0007219770433
0.0007197359593
0.0007175096301
0.0007152979551
0.000713100835
0.0007109181696
0.0007087498597
0.0007065958073
0.0007044559135
0.000702330081
0.0007002182117
0.0006981202078
0.0006960359733
0.0006939654118
0.0006919084265
0.0006898649219
0.0006878348027
0.0006858179732
0.0006838143388
0.0006818238047
0.0006798462769
0.0006778816618
0.0006759298656
0.0006739907949
0.000672064357
0.0006701504593
0.0006682490094
0.0006663599159
0.000664483087
0.0006626184317
0.0006607658591
0.0006589252793
0.0006570966023
0.000655279738
0.0006534745978
0.0006516810929
0.0006498991346
0.0006481286355
0.0006463695078
0.0006446216646
0.0006428850194
0.0006411594863
0.0006394449796
0.0006377414139
0.0006360487044
0.0006343667667
0.0006326955168
0.0006310348714
0.0006293847475
0.0006277450615
0.0006261157309
0.0006244966736
0.0006228878067
0.000621289048
0.0006197003156
0.0006181215267
0.0006165525977
0.0006149934452
0.0006134439849
0.0006119041303
0.0006103737937
0.0006088528854
0.0006073413118
0.0006058389759
0.0006043457755
0.000602861602
0.0006013863383
0.0005999198568
0.0005984620158
0.0005970126564
0.0005955715975
0.0005941386286
0.0005927135021
0.0005912959205
0.0005898855202
0.0005884818443
0.0005870842993
0.0005856920772
0.0005843040078
0.0005829182638
0.0005815317574
0.0005801389265
0.0005787294927
0.0005774817947
0.0005762548928
0.0005750257639
0.0005737553117
0.0005724416659
0.0005711365089
0.000569837523
0.0005685426807
0.0005672496871
0.0005659552003
0.0005646535012
0.0005633341569
0.000562167788
0.0005610196024
0.0005598723477
0.0005586844256
0.0005574467282
0.0005562104769
0.0005549687179
0.0005537104737
0.0005526007191
0.0005515096959
0.0005504068845
0.0005492464106
0.0005480569142
0.0005468611491
0.0005456477068
0.0005445790223
0.0005434858296
0.0005424318753
0.0005413640509
0.0005403351994
0.000539265689
0.0005382057424
0.0005371193067
0.000536024105
0.0005349233929
0.0005338140002
0.0005326856278
0.00053169137
0.0005307101432
0.0005297103448
0.0005286259577
0.0005276593522
0.0005266803414
0.0005257218157
0.0005247635858
0.0005238133595
0.0005228530124
0.0005218721767
0.0005208646746
0.0005198563798
0.0005188360636
0.0005179421113
0.0005170385771
0.0005161240512
0.0005151943326
0.0005142383524
0.0005132794849
0.0005123200943
0.0005113529451
0.0005103653328
0.0005094932567
0.0005086209959
0.000507752973
0.000506892452
0.0005060454543
0.000505189055
0.0005043537945
0.0005035227197
0.0005026484211
0.000501783548
0.0005009017358
0.0005000061742
0.000499092534
0.0004982945639
0.0004975089785
0.0004967258069
0.0004959131285
0.0004950502033
0.0004941762024
0.0004934172846
0.0004926524065
0.0004918715618
0.0004910795461
0.0004902650136
0.000489448691
0.000488624511
0.0004877820542
0.0004870470553
0.0004863218923
0.0004855997008
0.000484845111
0.0004840424242
0.0004832257069
0.0004825158946
0.0004818168679
0.0004811142803
0.0004803735484
0.0004795802095
0.0004788929713
0.0004781888312
0.0004775095294
0.0004768351456
0.0004761648247
0.0004754710417
0.0004747184739
0.0004740559743
0.0004733973133
0.0004727251216
0.0004720753773
0.0004714213061
0.0004707915131
0.0004701265724
0.0004694785673
0.0004688532006
0.0004682179692
0.0004675968863
0.0004669727929
0.0004663712498
0.000465745954
0.000465153746
0.0004645368863
0.000463952486
0.0004633496939
0.0004627712991
0.0004621787084
0.0004616074805
0.0004610243199
0.0004604582782
0.0004598838262
0.0004593254259
0.0004587665136
0.0004582218583
0.0004576603275
0.0004571132525
0.0004565731189
0.000456016896
0.000455510473
0.0004549668907
0.0004544590377
0.0004539385076
0.0004534432239
0.00045292574
0.0004524495358
0.0004519495916
0.0004514693751
0.0004509589137
0.0004504437552
0.0004499299517
0.0004494180041
0.0004489082487
0.0004484008879
0.0004478959186
0.0004473932599
0.0004468928472
0.0004463946672
0.0004458987731
0.0004454052888
0.00044491441
0.000444426561
0.000443943198
0.0004434686081
0.0004430118644
0.0004425661337
0.0004421258865
0.0004416811914
0.0004412183096
0.0004408208423
0.0004404107277
0.0004399862155
0.0004395968729
0.0004391832813
0.0004387997292
0.0004383595077
0.0004379794837
0.0004375431663
0.0004371132576
0.0004366879572
0.0004362654852
0.000435844897
0.0004354256854
0.0004350075065
0.0004345900732
0.000434173116
0.0004337563649
0.0004333395389
0.0004329223402
0.0004325044506
0.0004320855287
0.0004316652085
0.0004312430979
0.0004308187775
0.0004303918001
0.0004299616893
0.0004295279383
0.0004290900093
0.0004286473318
0.0004281993017
0.0004277452801
0.0004272845926
0.0004268165288
0.0004263403442
0.0004258552637
0.0004253604898
0.000424855195
0.0004243384056
0.0004238085555
0.0004232630974
0.0004227038814
0.0004221795925
0.0004216967064
0.0004211253821
0.000420518632
0.0004198970052
0.0004192577618
0.0004185993013
0.0004179207512
0.0004172218212
0.0004165015659
0.0004157512601
0.000415118399
0.0004143857713
0.0004135865888
0.0004127539281
0.0004118918359
0.0004109995338
0.0004100761187
0.0004091204816
0.0004081314494
0.0004071078437
0.0004060484893
0.000404952213
0.0004038178445
0.0004026442195
0.0004014301838
0.0004001745979
0.0003988763412
0.000397534317
0.0003961474565
0.0003947147231
0.0003932351175
0.0003917076827
0.0003901315078
0.0003885057341
0.0003868295597
0.0003851022458
0.0003833231231
0.0003814915978
0.0003796071607
0.0003776693971
0.000375677998
0.0003736327756
0.0003715336853
0.0003693808566
0.0003671746431
0.000364915641
0.0003626044118
0.0003602402143
0.0003578205929
0.0003553678651
0.0003530192015
0.0003509654928
0.0003485518509
0.0003459321077
0.0003432708191
0.0003405665029
0.0003378193543
0.000335030815
0.000332202833
0.0003293375273
0.0003264370921
0.0003235037819
0.0003205399167
0.0003175478871
0.0003145301559
0.00031148926
0.0003084278068
0.0003053484715
0.0003022539926
0.0002991471661
0.0002960308415
0.0002929079141
0.0002897813161
0.0002866540127
0.000283528994
0.000280409267
0.0002772978508
0.0002741977709
0.0002711120543
0.0002680437262
0.0002649958118
0.0002619713363
0.0002589733292
0.0002560048334
0.0002530689187
0.0002501686978
0.0002473073512
0.0002444881604
0.0002417145453
0.0002389901082
0.0002363186801
0.0002337043557
0.0002311515117
0.0002286647935
0.0002262490901
0.0002239095832
0.0002216520746
0.0002194839504
0.0002174162869
0.0002154677125
0.0002136708104
0.0002120824519
0.0002108014356
0.000210001908
)
;

boundaryField
{
    base
    {
        type            empty;
    }
    outlet
    {
        type            zeroGradient;
    }
    inlet
    {
        type            fixedValue;
        value           uniform 0;
    }
}


// ************************************************************************* //
