/*--------------------------------*- C++ -*----------------------------------*\
| =========                 |                                                 |
| \\      /  F ield         | OpenFOAM: The Open Source CFD Toolbox           |
|  \\    /   O peration     | Version:  v1712                                 |
|   \\  /    A nd           | Web:      www.OpenFOAM.com                      |
|    \\/     M anipulation  |                                                 |
\*---------------------------------------------------------------------------*/
FoamFile
{
    version     2.0;
    format      ascii;
    class       volScalarField;
    location    "0.001";
    object      O2;
}
// * * * * * * * * * * * * * * * * * * * * * * * * * * * * * * * * * * * * * //

dimensions      [0 0 0 0 0 0 0];


internalField   nonuniform List<scalar> 
1500
(
0.2263548215
0.2263548215
0.2263548215
0.2263548215
0.2263548215
0.2263548215
0.2263548215
0.2263548215
0.2263548215
0.2263548215
0.2263548215
0.2263548215
0.2263548215
0.2263548215
0.2263548215
0.2263548215
0.2263548215
0.2263548215
0.2263548215
0.2263548215
0.2263548215
0.2263548215
0.2263548215
0.2263548215
0.2263548215
0.2263548215
0.2263548215
0.2263548215
0.2263548215
0.2263548215
0.2263548215
0.2263548215
0.2263548215
0.2263548215
0.2263548215
0.2263548215
0.2263548215
0.2263548215
0.2263548215
0.2263548215
0.2263548215
0.2263548215
0.2263548215
0.2263548215
0.2263548215
0.2263548215
0.2263548215
0.2263548215
0.2263548215
0.2263548215
0.2263548215
0.2263548215
0.2263548215
0.2263548215
0.2263548215
0.2263548215
0.2263548215
0.2263548215
0.2263548215
0.2263548215
0.2263548215
0.2263548215
0.2263548215
0.2263548215
0.2263548215
0.2263548215
0.2263548215
0.2263548215
0.2263548215
0.2263548215
0.2263548215
0.2263548215
0.2263548215
0.2263548215
0.2263548215
0.2263548215
0.2263548215
0.2263548215
0.2263548215
0.2263548215
0.2263548215
0.2263548215
0.2263548215
0.2263548215
0.2263548215
0.2263548215
0.2263548215
0.2263548215
0.2263548215
0.2263548215
0.2263548215
0.2263548215
0.2263548215
0.2263548215
0.2263548215
0.2263548215
0.2263548215
0.2263548215
0.2263548215
0.2263548215
0.2263548215
0.2263548215
0.2263548215
0.2263548215
0.2263548215
0.2263548215
0.2263548215
0.2263548215
0.2263548215
0.2263548215
0.2263548215
0.2263548215
0.2263548215
0.2263548215
0.2263548215
0.2263548215
0.2263548215
0.2263548215
0.2263548215
0.2263548215
0.2263548215
0.2263548215
0.2263548215
0.2263548215
0.2263548215
0.2263548215
0.2263548215
0.2263548215
0.2263548215
0.2263548215
0.2263548215
0.2263548215
0.2263548215
0.2263548215
0.2263548215
0.2263548215
0.2263548215
0.2263548215
0.2263548215
0.2263548215
0.2263548215
0.2263548215
0.2263548215
0.2263548215
0.2263548215
0.2263548215
0.2263548215
0.2263548215
0.2263548215
0.2263548215
0.2263548215
0.2263548215
0.2263548215
0.2263548215
0.2263548215
0.2263548215
0.2263548215
0.2263548215
0.2263548215
0.2263548215
0.2263548215
0.2263548215
0.2263548215
0.2263548215
0.2263548215
0.2263548215
0.2263548215
0.2263548215
0.2263548215
0.2263548215
0.2263548215
0.2263548215
0.2263548215
0.2263548215
0.2263548215
0.2263548215
0.2263548215
0.2263548215
0.2263548215
0.2263548215
0.2263548215
0.2263548215
0.2263548215
0.2263548215
0.2263548215
0.2263548215
0.2263548215
0.2263548215
0.2263548215
0.2263548215
0.2263548215
0.2263548215
0.2263548215
0.2263548215
0.2263548215
0.2263548215
0.2263548215
0.2263548215
0.2263548215
0.2263548215
0.2263548215
0.2263548215
0.2263548215
0.2263548215
0.2263548215
0.2263548215
0.2263548215
0.2263548215
0.2263548215
0.2263548215
0.2263548215
0.2263548215
0.2263548215
0.2263548215
0.2263548215
0.2263548215
0.2263548215
0.2263548215
0.2263548215
0.2263548215
0.2263548215
0.2263548215
0.2263548215
0.2263548215
0.2263548215
0.2263548215
0.2263548215
0.2263548215
0.2263548215
0.2263548215
0.2263548215
0.2263548215
0.2263548215
0.2263548215
0.2263548215
0.2263548215
0.2263548215
0.2263548215
0.2263548215
0.2263548215
0.2263548215
0.2263548215
0.2263548215
0.2263548215
0.2263548215
0.2263548215
0.2263548215
0.2263548215
0.2263548215
0.2263548215
0.2263548215
0.2263548215
0.2263548215
0.2263548215
0.2263548215
0.2263548215
0.2263548215
0.2263548215
0.2263548215
0.2263548215
0.2263548215
0.2263548215
0.2263548215
0.2263548215
0.2263548215
0.2263548215
0.2263548215
0.2263548215
0.2263548215
0.2263548215
0.2263548215
0.2263548215
0.2263548215
0.2263548215
0.2263548215
0.2263548215
0.2263548215
0.2263548215
0.2263548215
0.2263548215
0.2263548215
0.2263548215
0.2263548215
0.2263548215
0.2263548215
0.2263548215
0.2263548215
0.2263548215
0.2263548215
0.2263548215
0.2263548215
0.2263548215
0.2263548215
0.2263548215
0.2263548215
0.2263548215
0.2263548215
0.2263548215
0.2263548215
0.2263548215
0.2263548215
0.2263548215
0.2263548215
0.2263548215
0.2263548215
0.2263548215
0.2263548215
0.2263548215
0.2263548215
0.2263548215
0.2263548215
0.2263548215
0.2263548215
0.2263548215
0.2263548215
0.2263548215
0.2263548215
0.2263548215
0.2263548215
0.2263548215
0.2263548215
0.2263548215
0.2263548215
0.2263548215
0.2263548215
0.2263548215
0.2263548215
0.2263548215
0.2263548215
0.2263548215
0.2263548215
0.2263548215
0.2263548215
0.2263548215
0.2263548215
0.2263548215
0.2263548215
0.2263548215
0.2263548215
0.2263548215
0.2263548215
0.2263548215
0.2263548215
0.2263548215
0.2263548215
0.2263548215
0.2263548215
0.2263548215
0.2263548215
0.2263548215
0.2263548215
0.2263548215
0.2263548215
0.2263548215
0.2263548215
0.2263548215
0.2263548215
0.2263548215
0.2263548215
0.2263548215
0.2263548215
0.2263548215
0.2263548215
0.2263548215
0.2263548215
0.2263548215
0.2263548215
0.2263548215
0.2263548215
0.2263548215
0.2263548215
0.2263548215
0.2263548215
0.2263548215
0.2263548215
0.2263548215
0.2263548215
0.2263548215
0.2263548215
0.2263548215
0.2263548215
0.2263548215
0.2263548215
0.2263548215
0.2263548215
0.2263548215
0.2263548215
0.2263548215
0.2263548215
0.2263548215
0.2263548215
0.2263548215
0.2263548215
0.2263548215
0.2263548215
0.2263548215
0.2263548215
0.2263548215
0.2263548215
0.2263548215
0.2263548215
0.2263548215
0.2263548215
0.2263548215
0.2263548215
0.2263548215
0.2263548215
0.2263548215
0.2263548215
0.2263548215
0.2263548215
0.2263548215
0.2263548215
0.2263548215
0.2263548215
0.2263548215
0.2263548215
0.2263548215
0.2263548215
0.2263548215
0.2263548215
0.2263548215
0.2263548215
0.2263548215
0.2263548215
0.2263548215
0.2263548215
0.2263548215
0.2263548215
0.2263548215
0.2263548215
0.2263548215
0.2263548215
0.2263548215
0.2263548215
0.2263548215
0.2263548215
0.2263548215
0.2263548215
0.2263548215
0.2263548215
0.2263548215
0.2263548215
0.2263548215
0.2263548215
0.2263548215
0.2263548215
0.2263548215
0.2263548215
0.2263548215
0.2263548215
0.2263548215
0.2263548215
0.2263548215
0.2263548215
0.2263548215
0.2263548215
0.2263548215
0.2263548215
0.2263548215
0.2263548215
0.2263548215
0.2263548215
0.2263548215
0.2263548215
0.2263548215
0.2263548215
0.2263548215
0.2263548215
0.2263548215
0.2263548215
0.2263548215
0.2263548215
0.2263548215
0.2263548215
0.2263548215
0.2263548215
0.2263548215
0.2263548215
0.2263548215
0.2263548215
0.2263548215
0.2263548215
0.2263548215
0.2263548215
0.2263548215
0.2263548215
0.2263548215
0.2263548215
0.2263548215
0.2263548215
0.2263548215
0.2263548215
0.2263548215
0.2263548215
0.2263548215
0.2263548215
0.2263548215
0.2263548215
0.2263548215
0.2263548215
0.2263548215
0.2263548215
0.2263548215
0.2263548215
0.2263548215
0.2263548215
0.2263548215
0.2263548215
0.2263548215
0.2263548215
0.2263548215
0.2263548215
0.2263548215
0.2263548215
0.2263548215
0.2263548215
0.2263548215
0.2263548215
0.2263548215
0.2263548215
0.2263548215
0.2263548215
0.2263548215
0.2263548215
0.2263548215
0.2263548215
0.2263548215
0.2263548215
0.2263548215
0.2263548215
0.2263548215
0.2263548215
0.2263548215
0.2263548215
0.2263548215
0.2263548215
0.2263548215
0.2263548215
0.2263548215
0.2263548215
0.2263548215
0.2263548215
0.2263548215
0.2263548215
0.2263548215
0.2263548215
0.2263548215
0.2263548215
0.2263548215
0.2263548215
0.2263548215
0.2263548215
0.2263548215
0.2263548215
0.2263548215
0.2263548215
0.2263548215
0.2263548215
0.2263548215
0.2263548215
0.2263548215
0.2263548215
0.2263548215
0.2263548215
0.2263548215
0.2263548215
0.2263548215
0.2263548215
0.2263548215
0.2263548215
0.2263548215
0.2263548215
0.2263548215
0.2263548215
0.2263548215
0.2263548215
0.2263548215
0.2263548215
0.2263548215
0.2263548215
0.2263548215
0.2263548215
0.2263548215
0.2263548215
0.2263548215
0.2263548215
0.2263548215
0.2263548215
0.2263548215
0.2263548215
0.2263548215
0.2263548215
0.2263548215
0.2263548215
0.2263548215
0.2263548215
0.2263548215
0.2263548215
0.2263548215
0.2263548215
0.2263548215
0.2263548215
0.2263548215
0.2263548215
0.2263548215
0.2263548215
0.2263548215
0.2263548215
0.2263548215
0.2263548215
0.2263548215
0.2263548215
0.2263548215
0.2263548215
0.2263548215
0.2263548215
0.2263548215
0.2263548215
0.2263548215
0.2263548215
0.2263548215
0.2263548215
0.2263548215
0.2263548215
0.2263548215
0.2263548215
0.2263548215
0.2263548215
0.2263548215
0.2263548215
0.2263548215
0.2263548215
0.2263548215
0.2263548215
0.2263548215
0.2263548215
0.2263548215
0.2263548215
0.2263548215
0.2263548215
0.2263548215
0.2263548215
0.2263548215
0.2263548215
0.2263548215
0.2263548215
0.2263548215
0.2263548215
0.2263548215
0.2263548215
0.2263548215
0.2263548215
0.2263548215
0.2263548215
0.2263548215
0.2263548215
0.2263548215
0.2263548215
0.2263548215
0.2263548215
0.2263548215
0.2263548215
0.2263548216
0.2263548216
0.2263548216
0.2263548216
0.2263548217
0.2263548217
0.2263548218
0.2263548219
0.226354822
0.2263548222
0.2263548224
0.2263548227
0.2263548231
0.2263548236
0.2263548243
0.2263548252
0.2263548263
0.2263548279
0.2263548298
0.2263548324
0.2263548358
0.2263548402
0.226354846
0.2263548535
0.2263548632
0.2263548759
0.2263548926
0.226354914
0.2263549407
0.2263549765
0.2263550238
0.2263550853
0.2263551654
0.2263552695
0.2263554049
0.2263555807
0.226355809
0.2263561052
0.2263564894
0.2263569872
0.2263576316
0.2263584651
0.2263595416
0.2263609296
0.2263627142
0.2263650001
0.2263679104
0.2263715804
0.2263761362
0.2263816483
0.2263880478
0.2263948264
0.2264008228
0.2264046934
0.2264040478
0.2263934984
0.2263565333
0.2262686445
0.2260916868
0.2257650524
0.2252021601
0.224370187
0.2233586244
0.2218509851
0.2196480081
0.217528121
0.214567299
0.2118800282
0.20855774
0.2048940781
0.2009788279
0.1967802564
0.1922493547
0.1873300982
0.1819697401
0.1761274187
0.1697804247
0.1629319329
0.1556369105
0.1480543202
0.140348304
0.1331009798
0.1259549811
0.1188410884
0.1115220892
0.1042639847
0.09735681323
0.09083656584
0.0847291909
0.07905347656
0.07381810069
0.06901641912
0.06462684813
0.0610605112
0.05781984811
0.05469022558
0.0518852192
0.04936650593
0.04733980376
0.04555685398
0.0439414781
0.04241289942
0.04105296701
0.03984030015
0.03875602541
0.03778345243
0.03690791297
0.03611658307
0.03539829947
0.03474337982
0.03414345033
0.03359128626
0.03308066218
0.03260621875
0.0321633419
0.03174805491
0.03135692346
0.03098697
0.03063560103
0.03030054773
0.02997982194
0.02967168444
0.02937456883
0.02911669722
0.02884355691
0.02860466066
0.02835242918
0.02810820348
0.02787118615
0.02764080079
0.0274165869
0.02719814303
0.0269851029
0.02677712703
0.02657389908
0.02637512128
0.0261805104
0.02598979321
0.02580270304
0.02561897888
0.02543835769
0.02527906322
0.02510803716
0.0249401884
0.02477541463
0.02461361879
0.02445470523
0.02429858141
0.0241451581
0.02399434985
0.02384607515
0.02370025615
0.02355681876
0.02341569235
0.02327680947
0.02314010569
0.0230055197
0.02287299281
0.02274246872
0.02261389359
0.02248721593
0.02236238616
0.02223935673
0.02211808207
0.02199851827
0.02188062297
0.02176435549
0.02164967672
0.0215365488
0.0214249353
0.02131480102
0.02120611208
0.02109883568
0.02099294007
0.02088839473
0.02078516999
0.02068323714
0.02058256851
0.02048313724
0.02038491734
0.02028788362
0.02019201164
0.02009727775
0.02000365894
0.01991113296
0.01981967815
0.01972927351
0.0196398987
0.0195515338
0.0194641596
0.01937775737
0.01929230881
0.01920779625
0.01912420242
0.01904151049
0.01895970412
0.01887876735
0.01879868463
0.01871944078
0.01864102107
0.01856341109
0.01848659673
0.01841056431
0.01833530044
0.01826079203
0.0181870263
0.01811399075
0.01804167326
0.01797006191
0.017899145
0.01782891122
0.01775934945
0.01769044879
0.01762219861
0.0175545885
0.01748760832
0.01742124814
0.01735549818
0.01729034894
0.01722579107
0.01716181549
0.01709841331
0.01703557574
0.01697329424
0.01691156049
0.01685036627
0.01678970357
0.01672956453
0.01666994148
0.01661082691
0.01655221348
0.01649409395
0.01643646125
0.01637930851
0.01632262893
0.01626641589
0.01621066294
0.01615536371
0.01610051198
0.01604610166
0.01599212677
0.01593858149
0.0158854601
0.015832757
0.01578046667
0.01572858379
0.01567710308
0.01562601937
0.01557532762
0.01552502292
0.0154751004
0.01542555535
0.0153763831
0.01532757909
0.0152791389
0.01523105818
0.01518333263
0.01513595808
0.01508893047
0.01504224574
0.01499589996
0.01494988931
0.01490421001
0.01485885838
0.0148138308
0.01476912373
0.0147247337
0.0146806573
0.01463689121
0.01459343218
0.01455027701
0.01450742257
0.01446486575
0.01442260359
0.01438063311
0.01433895143
0.01429755572
0.01425644317
0.01421561106
0.01417505673
0.01413477752
0.01409477084
0.01405503418
0.01401556503
0.01397636092
0.01393741945
0.01389873826
0.013860315
0.01382214736
0.01378423309
0.01374656994
0.01370915571
0.01367198827
0.01363506543
0.01359838507
0.01356194513
0.01352574353
0.0134897782
0.01345404715
0.01341854836
0.01338327986
0.01334823966
0.01331342581
0.01327883641
0.0132444695
0.01321032319
0.01317639559
0.01314268481
0.01310918899
0.01307590625
0.01304283476
0.01300997266
0.01297731811
0.01294486931
0.01291262442
0.01288058163
0.01284873914
0.01281709515
0.01278564787
0.01275439551
0.0127233363
0.01269246845
0.0126617902
0.01263129979
0.01260099545
0.01257087544
0.01254093802
0.01251118145
0.012481604
0.01245220396
0.01242297959
0.01239392921
0.01236505112
0.01233634361
0.01230780503
0.0122794337
0.01225122795
0.01222318615
0.01219530667
0.01216758788
0.01214002817
0.01211262594
0.01208537963
0.01205828766
0.01203134847
0.01200456053
0.01197792232
0.01195143233
0.0119250891
0.01189889115
0.01187283703
0.0118469253
0.01182115457
0.01179552345
0.01177003055
0.01174467453
0.01171945407
0.01169436787
0.01166941463
0.01164459308
0.01161990201
0.01159534017
0.01157090638
0.01154659947
0.01152241829
0.01149836171
0.01147442863
0.01145061796
0.01142692865
0.01140335967
0.01137991
0.01135657867
0.0113333647
0.01131026715
0.0112872851
0.01126441766
0.01124166395
0.01121902311
0.01119649433
0.01117407678
0.01115176967
0.01112957225
0.01110748376
0.01108550348
0.0110636307
0.01104186472
0.0110202049
0.01099865057
0.01097720109
0.01095585586
0.01093461429
0.01091347578
0.01089243979
0.01087150576
0.01085067315
0.01082994145
0.01080931017
0.01078877882
0.01076834692
0.01074801401
0.01072777964
0.01070764339
0.01068760482
0.01066766353
0.01064781911
0.01062807118
0.01060841935
0.01058886327
0.01056940256
0.01055003686
0.01053076585
0.01051158919
0.01049250654
0.01047351759
0.01045462201
0.01043581949
0.01041710975
0.01039849247
0.01037996737
0.01036153414
0.01034319251
0.0103249422
0.01030678293
0.01028871442
0.01027073639
0.01025284857
0.0102350507
0.01021734249
0.01019972369
0.01018219402
0.01016475321
0.01014740099
0.0101301371
0.01011296125
0.01009587318
0.01007887262
0.01006195927
0.01004513287
0.01002839312
0.01001173975
0.009995172463
0.009978690963
0.009962294954
0.00994598414
0.009929758208
0.00991361685
0.009897559754
0.009881586595
0.009865697054
0.009849890795
0.009834167479
0.009818526771
0.009802968323
0.00978749178
0.009772096785
0.009756782976
0.009741549979
0.009726397422
0.009711324922
0.009696332093
0.009681418545
0.00966658388
0.009651827693
0.009637149578
0.009622549121
0.009608025904
0.009593579506
0.009579209501
0.009564915455
0.009550696935
0.009536553504
0.009522484721
0.009508490136
0.009494569306
0.009480721779
0.009466947101
0.00945324482
0.009439614478
0.009426055618
0.009412567784
0.009399150518
0.009385803362
0.009372525858
0.009359317547
0.009346177973
0.009333106681
0.00932010322
0.009307167141
0.009294297987
0.009281495316
0.009268758684
0.009256087645
0.009243481763
0.009230940603
0.00921846373
0.009206050708
0.009193701107
0.0091814145
0.009169190448
0.009157028514
0.009144928256
0.009132889213
0.009120910909
0.00910899284
0.009097134462
0.009085335169
0.009073594267
0.009061910931
0.009050284146
0.009038712612
0.009027194598
0.009015727726
0.009004308619
0.008992932367
0.008981591663
0.008970275441
0.008958966712
0.008947639138
0.008936251658
0.008924740159
0.008913005021
0.008900894772
0.008890845676
0.008881160184
0.008871540446
0.008861455683
0.008850764077
0.008840082731
0.008829399015
0.008818688979
0.008807912223
0.008797003387
0.008785859081
0.008774320256
0.0087647614
0.008755532482
0.008746402391
0.00873680129
0.008726469913
0.008716006718
0.008705313387
0.00869423421
0.008685087687
0.008676277117
0.008667399582
0.008657777776
0.008647634708
0.008637221367
0.008626360749
0.008617374392
0.008608160907
0.00859934647
0.008590537618
0.008582094946
0.008573309678
0.008564612329
0.008555511937
0.008546169661
0.008536645585
0.008526861578
0.008516640262
0.008508189455
0.00849996953
0.008491536306
0.008481873652
0.008473718768
0.008465400787
0.00845739173
0.008449378666
0.008441470741
0.008433458905
0.008425111801
0.008416334892
0.008407416696
0.0083981875
0.008390664793
0.008383049117
0.008375378128
0.008367514304
0.008359219785
0.008350822774
0.008342325473
0.008333601031
0.008324435095
0.008316821823
0.00830920847
0.00830164799
0.008294178954
0.008286927031
0.008279553343
0.008272488539
0.008265487896
0.008258054207
0.008250551204
0.00824264514
0.008234445072
0.008225847648
0.008218844125
0.008212078874
0.008205403983
0.008198343456
0.00819046212
0.008182243529
0.008175625304
0.008168967464
0.008162214268
0.008155317344
0.008148058194
0.008140671031
0.008133028384
0.008124949435
0.008118377589
0.008112023223
0.008105773493
0.008099108452
0.008091668843
0.008083844896
0.008077499445
0.008071358211
0.008065212266
0.008058517544
0.008050887506
0.008044694398
0.008038338746
0.008032281178
0.008026303172
0.008020391972
0.008014162885
0.008007033601
0.008001111648
0.007995204052
0.007989045915
0.007983230372
0.007977323176
0.007971750504
0.00796572915
0.007959798447
0.007954199796
0.007948391198
0.007942804254
0.00793713182
0.007931757496
0.007926091852
0.007920803305
0.007915204184
0.007909989803
0.007904515625
0.007899356539
0.00789396051
0.007888865007
0.007883559262
0.007878490823
0.007873262001
0.007868241744
0.0078631747
0.007858257448
0.007853189093
0.007848204234
0.007843377834
0.007838275914
0.007833776294
0.007828800972
0.007824291668
0.007819571472
0.007815199831
0.007810573006
0.007806442895
0.007802071376
0.007797878637
0.007793319132
0.007788599658
0.007783834452
0.007779049736
0.007774262404
0.007769476711
0.007764690756
0.007759900897
0.007755102242
0.007750288855
0.007745455449
0.007740599855
0.007735723291
0.007730826401
0.007725915869
0.00772107193
0.007716578091
0.007712298366
0.007708081552
0.00770372439
0.007698920202
0.007695091499
0.007691109254
0.007686914172
0.00768317949
0.00767904562
0.007675299758
0.007670698783
0.007666866186
0.007662110718
0.007657398258
0.007652701083
0.007647990199
0.00764324953
0.007638469043
0.007633641218
0.00762875965
0.007623818354
0.007618811381
0.007613732593
0.007608575515
0.007603333239
0.007597998376
0.007592563022
0.007587018752
0.007581356613
0.007575567111
0.007569640199
0.007563565242
0.007557330978
0.007550925455
0.007544335954
0.007537548882
0.007530549629
0.007523322383
0.007515849891
0.007508113159
0.007500091166
0.00749176085
0.007483096605
0.007474061553
0.007464574591
0.007454563364
0.007445810889
0.007437895083
0.007427826029
0.007416842526
0.007405460268
0.007393622844
0.007381293757
0.007368440576
0.007355045737
0.007341137353
0.007326532556
0.007315324663
0.007301588189
0.007286042372
0.007269687776
0.007252680216
0.007235016156
0.007216677493
0.007197640987
0.007177883333
0.007157381894
0.007136114561
0.007114059654
0.007091195924
0.007067502594
0.007042959412
0.007017546705
0.00699124544
0.006964037303
0.00693590475
0.006906831092
0.006876800558
0.00684579838
0.006813810843
0.006780825363
0.006746830531
0.006711816164
0.006675773327
0.006638694312
0.0066005726
0.006561402761
0.006521180226
0.006479900958
0.006437560889
0.00639415499
0.006349675952
0.006304112914
0.006257451326
0.006209655306
0.006160541872
0.006110142546
0.006065186953
0.006027552708
0.005980560531
0.005928308369
0.005875387939
0.005821802205
0.005767557227
0.005712674531
0.00565718436
0.005601122089
0.005544526968
0.005487441478
0.005429910866
0.005371982762
0.005313706845
0.005255134601
0.005196319059
0.005137314587
0.005078176677
0.00501896176
0.004959727047
0.004900530328
0.004841429762
0.004782483759
0.00472375079
0.00466528921
0.004607157128
0.00454941226
0.004492111781
0.004435312196
0.004379069271
0.004323437928
0.004268472182
0.004214225196
0.004160749405
0.004108096757
0.004056319173
0.004005469272
0.003955601373
0.003906772853
0.00385904585
0.003812488882
0.003767177499
0.003723191899
0.003680608892
0.003639486994
0.003599848371
0.003561669221
0.003524897869
0.003489524634
0.003455730275
0.003424167044
0.003396562728
0.003377246141
)
;

boundaryField
{
    base
    {
        type            empty;
    }
    outlet
    {
        type            zeroGradient;
    }
    inlet
    {
        type            fixedValue;
        value           uniform 0.2263548215;
    }
}


// ************************************************************************* //
