/*--------------------------------*- C++ -*----------------------------------*\
| =========                 |                                                 |
| \\      /  F ield         | OpenFOAM: The Open Source CFD Toolbox           |
|  \\    /   O peration     | Version:  v1712                                 |
|   \\  /    A nd           | Web:      www.OpenFOAM.com                      |
|    \\/     M anipulation  |                                                 |
\*---------------------------------------------------------------------------*/
FoamFile
{
    version     2.0;
    format      ascii;
    class       volScalarField;
    location    "0.001";
    object      OH;
}
// * * * * * * * * * * * * * * * * * * * * * * * * * * * * * * * * * * * * * //

dimensions      [0 0 0 0 0 0 0];


internalField   nonuniform List<scalar> 
1500
(
2.80781444e-48
5.421044637e-48
7.187205377e-48
8.373350572e-48
9.16003299e-48
9.705088784e-48
1.006303279e-47
1.032418208e-47
1.051825107e-47
1.063099099e-47
1.075281639e-47
1.082425574e-47
1.088368498e-47
1.09348249e-47
1.098270792e-47
1.102061933e-47
1.104624782e-47
1.106632954e-47
1.107924938e-47
1.108571023e-47
1.108592361e-47
1.107976354e-47
1.106489933e-47
1.103501525e-47
1.100810111e-47
1.097002707e-47
1.091973893e-47
1.084077732e-47
1.07903793e-47
1.073369765e-47
1.065423309e-47
1.058191635e-47
1.05000105e-47
1.044459939e-47
1.039043357e-47
1.034040703e-47
1.031028718e-47
1.028226718e-47
1.026958678e-47
1.026863235e-47
1.027882524e-47
1.030480378e-47
1.036847055e-47
1.043511334e-47
1.051215625e-47
1.059219749e-47
1.069396189e-47
1.082333133e-47
1.096203667e-47
1.114236693e-47
1.129431154e-47
1.143390444e-47
1.157143539e-47
1.170056022e-47
1.181858529e-47
1.192046729e-47
1.201903794e-47
1.212515273e-47
1.221082193e-47
1.227765993e-47
1.231714631e-47
1.234532123e-47
1.235917948e-47
1.236090217e-47
1.235165764e-47
1.233343339e-47
1.230787051e-47
1.227515433e-47
1.223508472e-47
1.219483652e-47
1.21355138e-47
1.208727506e-47
1.203326711e-47
1.198480644e-47
1.19325838e-47
1.188812951e-47
1.185225344e-47
1.180637075e-47
1.177439798e-47
1.174277827e-47
1.171580183e-47
1.16915436e-47
1.167002511e-47
1.165198725e-47
1.163441014e-47
1.162135527e-47
1.160976012e-47
1.160016772e-47
1.159055227e-47
1.15833749e-47
1.15773724e-47
1.157300261e-47
1.156988984e-47
1.156652963e-47
1.156423174e-47
1.156254647e-47
1.15611952e-47
1.1560327e-47
1.155937115e-47
1.155867677e-47
1.155815233e-47
1.155786029e-47
1.155767272e-47
1.155752237e-47
1.155742087e-47
1.155736545e-47
1.155734101e-47
1.155733796e-47
1.15573509e-47
1.155738044e-47
1.155741638e-47
1.155745681e-47
1.155750658e-47
1.155757566e-47
1.155762547e-47
1.155768046e-47
1.155775099e-47
1.155781536e-47
1.155789674e-47
1.155794568e-47
1.155800289e-47
1.155805363e-47
1.15581033e-47
1.155815901e-47
1.155822969e-47
1.155828494e-47
1.155834142e-47
1.155838908e-47
1.155843835e-47
1.155849834e-47
1.155854651e-47
1.155859148e-47
1.155863849e-47
1.155868323e-47
1.155872657e-47
1.15587724e-47
1.15588103e-47
1.155885098e-47
1.155888788e-47
1.15589265e-47
1.155896314e-47
1.15589907e-47
1.155902539e-47
1.155905657e-47
1.155908366e-47
1.155911137e-47
1.155913439e-47
1.155915642e-47
1.155917712e-47
1.155919806e-47
1.155921623e-47
1.155922784e-47
1.155924012e-47
1.1559251e-47
1.155925849e-47
1.155926363e-47
1.1559267e-47
1.155926842e-47
1.155926786e-47
1.15592656e-47
1.155926105e-47
1.15592546e-47
1.15592464e-47
1.155923695e-47
1.155922462e-47
1.15592104e-47
1.155919511e-47
1.155917413e-47
1.15591529e-47
1.15591307e-47
1.155910714e-47
1.155908475e-47
1.155905972e-47
1.155903513e-47
1.155900687e-47
1.155898097e-47
1.155895281e-47
1.15589246e-47
1.155889581e-47
1.155885956e-47
1.155882317e-47
1.155879041e-47
1.155874713e-47
1.155871736e-47
1.155868044e-47
1.155864892e-47
1.155861032e-47
1.15585691e-47
1.155853149e-47
1.155849384e-47
1.155845553e-47
1.155841904e-47
1.155838454e-47
1.155834706e-47
1.155830921e-47
1.155827178e-47
1.155822918e-47
1.155819052e-47
1.155815054e-47
1.155811246e-47
1.155807141e-47
1.155802567e-47
1.155797318e-47
1.155790924e-47
1.155785622e-47
1.155780104e-47
1.155774916e-47
1.155769727e-47
1.155764403e-47
1.155758706e-47
1.155752173e-47
1.155744992e-47
1.155738872e-47
1.155732224e-47
1.15572446e-47
1.155717926e-47
1.155711343e-47
1.15570491e-47
1.155698846e-47
1.155691787e-47
1.155685538e-47
1.155678745e-47
1.155672256e-47
1.155665274e-47
1.155658764e-47
1.15565148e-47
1.155642032e-47
1.155634152e-47
1.155626966e-47
1.155619277e-47
1.155612604e-47
1.15560342e-47
1.155596455e-47
1.155589558e-47
1.155582918e-47
1.155576464e-47
1.15556943e-47
1.155563258e-47
1.155556174e-47
1.155548937e-47
1.155540284e-47
1.155531805e-47
1.155523886e-47
1.155517379e-47
1.155511245e-47
1.155504621e-47
1.155496822e-47
1.155489532e-47
1.155482795e-47
1.155476571e-47
1.155469765e-47
1.155463227e-47
1.155457316e-47
1.155450654e-47
1.155443329e-47
1.155436669e-47
1.155430106e-47
1.155422819e-47
1.155417005e-47
1.155410718e-47
1.155404038e-47
1.15539737e-47
1.155391042e-47
1.155385164e-47
1.155377863e-47
1.155371336e-47
1.155364499e-47
1.155358498e-47
1.155352081e-47
1.155344395e-47
1.155337264e-47
1.155330997e-47
1.155324807e-47
1.155318408e-47
1.155311896e-47
1.155304753e-47
1.155298506e-47
1.155292546e-47
1.155286583e-47
1.155280389e-47
1.155274383e-47
1.155268475e-47
1.155262457e-47
1.15525634e-47
1.155250203e-47
1.155244438e-47
1.155238766e-47
1.155231971e-47
1.155225733e-47
1.155219636e-47
1.155213339e-47
1.155207265e-47
1.155201467e-47
1.155195492e-47
1.155189777e-47
1.155184137e-47
1.155178125e-47
1.155172368e-47
1.155166909e-47
1.15516126e-47
1.155155389e-47
1.155149682e-47
1.155144218e-47
1.155139219e-47
1.155133126e-47
1.155127879e-47
1.155122528e-47
1.155117023e-47
1.155111719e-47
1.155106084e-47
1.155100255e-47
1.155095311e-47
1.155090442e-47
1.155085762e-47
1.155080133e-47
1.155073891e-47
1.155066642e-47
1.155061619e-47
1.155056938e-47
1.155052327e-47
1.155047822e-47
1.155043682e-47
1.155039021e-47
1.155034569e-47
1.155030221e-47
1.155025411e-47
1.155020031e-47
1.155015392e-47
1.155010962e-47
1.155006532e-47
1.155002119e-47
1.154997442e-47
1.154993051e-47
1.154988585e-47
1.154984319e-47
1.154980284e-47
1.154975773e-47
1.154970543e-47
1.154965554e-47
1.154961056e-47
1.154956927e-47
1.154952514e-47
1.154948388e-47
1.154944346e-47
1.154940493e-47
1.154936809e-47
1.154932385e-47
1.15492827e-47
1.154924138e-47
1.154919707e-47
1.154915017e-47
1.154909216e-47
1.154904815e-47
1.154900721e-47
1.154896929e-47
1.154893238e-47
1.154889465e-47
1.154885418e-47
1.154881203e-47
1.154876471e-47
1.154871846e-47
1.154867685e-47
1.154863884e-47
1.154859619e-47
1.154855465e-47
1.154851724e-47
1.154847735e-47
1.154844019e-47
1.154840013e-47
1.154836383e-47
1.15483241e-47
1.154828542e-47
1.154824723e-47
1.154820899e-47
1.154817002e-47
1.154813305e-47
1.154809066e-47
1.154805343e-47
1.154801169e-47
1.154797156e-47
1.154793739e-47
1.154790129e-47
1.154785478e-47
1.154780948e-47
1.154776529e-47
1.154772686e-47
1.154768911e-47
1.154765186e-47
1.154761681e-47
1.154758175e-47
1.154754634e-47
1.154750953e-47
1.154747565e-47
1.154744096e-47
1.154740631e-47
1.154737213e-47
1.154733936e-47
1.154730589e-47
1.154726974e-47
1.154723692e-47
1.154720316e-47
1.154716787e-47
1.154713461e-47
1.154710147e-47
1.154706883e-47
1.154703652e-47
1.154699767e-47
1.154696455e-47
1.154692268e-47
1.154689128e-47
1.154685851e-47
1.154682468e-47
1.154679178e-47
1.154676037e-47
1.154672652e-47
1.154669475e-47
1.154666235e-47
1.154663081e-47
1.154659694e-47
1.154656221e-47
1.15465297e-47
1.154649428e-47
1.154645865e-47
1.154642398e-47
1.154638939e-47
1.154635439e-47
1.154631963e-47
1.154628522e-47
1.154624843e-47
1.154621449e-47
1.154618087e-47
1.154614773e-47
1.154611091e-47
1.154607638e-47
1.154604345e-47
1.154600986e-47
1.154597562e-47
1.154594065e-47
1.154590625e-47
1.154587299e-47
1.154583997e-47
1.154580955e-47
1.154577417e-47
1.15457375e-47
1.154570099e-47
1.154565793e-47
1.15456172e-47
1.154557647e-47
1.154553911e-47
1.154550274e-47
1.15454695e-47
1.154543849e-47
1.154540262e-47
1.154536711e-47
1.154533108e-47
1.154528777e-47
1.154524467e-47
1.154520349e-47
1.154516423e-47
1.154512529e-47
1.154509251e-47
1.154506303e-47
1.154503448e-47
1.154500084e-47
1.154496607e-47
1.15449281e-47
1.154489479e-47
1.154485736e-47
1.154482247e-47
1.15447806e-47
1.154474557e-47
1.154470444e-47
1.154466735e-47
1.154463062e-47
1.154459321e-47
1.154455942e-47
1.154452825e-47
1.154449472e-47
1.154445427e-47
1.154441884e-47
1.154437865e-47
1.154434245e-47
1.154430705e-47
1.154426725e-47
1.154422997e-47
1.154419469e-47
1.154415954e-47
1.154412274e-47
1.154408635e-47
1.154404914e-47
1.154401229e-47
1.154396886e-47
1.154393111e-47
1.154389642e-47
1.154386156e-47
1.154382657e-47
1.154379178e-47
1.154375689e-47
1.154371929e-47
1.154368123e-47
1.154364726e-47
1.154361263e-47
1.1543578e-47
1.15435417e-47
1.154350533e-47
1.154346803e-47
1.154343035e-47
1.154339348e-47
1.154335666e-47
1.154332028e-47
1.154328026e-47
1.154324444e-47
1.154320739e-47
1.154317131e-47
1.154313404e-47
1.154309479e-47
1.154305517e-47
1.154301802e-47
1.154297765e-47
1.154293782e-47
1.154289772e-47
1.15428611e-47
1.154282675e-47
1.154279254e-47
1.154275354e-47
1.154271257e-47
1.154267115e-47
1.154263108e-47
1.154259303e-47
1.154255137e-47
1.154251912e-47
1.154249492e-47
1.154248339e-47
1.154249247e-47
1.154253538e-47
1.154263768e-47
1.154286625e-47
1.154328643e-47
1.154406684e-47
1.154539002e-47
1.15477603e-47
1.155171815e-47
1.155856219e-47
1.157023292e-47
1.158977985e-47
1.162586042e-47
1.168192007e-47
1.179081833e-47
1.197951446e-47
1.230295397e-47
1.286023558e-47
1.384848233e-47
1.547220387e-47
1.831831239e-47
2.314550868e-47
3.144946968e-47
4.596297419e-47
6.999827942e-47
1.103203907e-46
1.820736312e-46
3.154311184e-46
5.191309677e-46
9.097924359e-46
1.522277815e-45
2.617294741e-45
4.490930121e-45
7.504306342e-45
1.298685587e-44
2.148917326e-44
3.625006067e-44
5.986517022e-44
1.007195136e-43
1.693620482e-43
2.920087604e-43
5.193126809e-43
8.568599144e-43
1.448858027e-42
2.377502528e-42
3.919580266e-42
6.494339232e-42
1.070853024e-41
1.749261827e-41
2.865591614e-41
4.788788333e-41
8.103455826e-41
1.355623034e-40
2.343018141e-40
4.050503073e-40
7.306019138e-40
1.210084889e-39
2.021550964e-39
3.382669269e-39
5.743557377e-39
9.683153627e-39
1.664586101e-38
2.860968808e-38
4.854491366e-38
8.291145174e-38
1.428640664e-37
2.526477712e-37
4.356672103e-37
7.504790829e-37
1.280433051e-36
2.169376132e-36
3.684950542e-36
6.388997426e-36
1.076572316e-35
1.836818376e-35
3.13424185e-35
5.339536055e-35
9.226727227e-35
1.536569517e-34
2.535831601e-34
4.129747059e-34
6.903589095e-34
1.155162546e-33
1.986962215e-33
3.341673813e-33
5.401362905e-33
8.664119091e-33
1.517960215e-32
2.507349391e-32
4.147160293e-32
6.956524821e-32
1.232449146e-31
2.173768704e-31
3.848580099e-31
6.520640004e-31
1.111422552e-30
1.87600187e-30
3.056644124e-30
5.324731553e-30
9.430285075e-30
1.674456243e-29
2.977088707e-29
5.302223344e-29
9.462171901e-29
1.692291553e-28
3.033800327e-28
5.452445367e-28
9.825228622e-28
1.775365556e-27
3.217117337e-27
5.846734217e-27
1.065744504e-26
1.948514984e-26
3.573333682e-26
6.572956946e-26
1.212702607e-25
2.244060727e-25
4.164633572e-25
7.750987589e-25
1.446654616e-24
2.707862922e-24
5.083183353e-24
9.559210776e-24
1.798648573e-23
3.394230265e-23
6.410451857e-23
1.212617025e-22
2.290702064e-22
4.325527293e-22
8.196538085e-22
1.555124759e-21
2.947496475e-21
5.585670304e-21
1.058451933e-20
2.007957401e-20
3.810488119e-20
7.23138212e-20
1.369483809e-19
2.594300608e-19
4.931772042e-19
9.316951372e-19
1.766411149e-18
3.346457429e-18
6.318227979e-18
1.192550141e-17
2.252354784e-17
4.242359073e-17
7.992389838e-17
1.495054948e-16
2.79306328e-16
5.209595874e-16
9.656513849e-16
1.790313272e-15
3.312521056e-15
6.078406966e-15
1.117054e-14
2.071815656e-14
3.789870228e-14
6.815773966e-14
1.256072069e-13
2.339359103e-13
4.351582003e-13
8.079177479e-13
1.497590539e-12
2.772549476e-12
5.127921242e-12
9.477294729e-12
1.750728407e-11
3.233441223e-11
5.972438662e-11
1.103592314e-10
2.040587678e-10
3.776472931e-10
6.996174112e-10
1.297456647e-09
2.408542551e-09
4.474879258e-09
8.319352736e-09
1.547376413e-08
2.879053431e-08
5.353368656e-08
9.885308409e-08
1.814485449e-07
3.322589506e-07
5.629973469e-07
9.838917671e-07
1.848756109e-06
3.6136881e-06
7.34287706e-06
1.554588482e-05
3.377108297e-05
7.015891265e-05
0.0001306708265
0.0002321025839
0.0003752119496
0.0005129571759
0.0006561568054
0.000760644921
0.0008387450258
0.0008850500348
0.0009101714107
0.0009274618417
0.0009492332268
0.0009859332887
0.001046017684
0.001136059127
0.001260899209
0.001423619869
0.001625246695
0.001864520786
0.002139407222
0.002429639546
0.002744218687
0.003081969808
0.003449757635
0.003837774796
0.00423341762
0.004633491442
0.005035124083
0.005435304381
0.005831042156
0.006219919242
0.006600142161
0.006941723542
0.007272681995
0.007605383486
0.007921582381
0.008220935246
0.008482931973
0.008726451035
0.008957053805
0.009181138537
0.009388835524
0.009580869026
0.009758073665
0.009921331448
0.01007154393
0.01020961032
0.01033641074
0.01045279365
0.01055956727
0.01065749368
0.01074728618
0.01082960799
0.01090507257
0.01097424479
0.01103764224
0.01109573643
0.01114895212
0.01119766341
0.01124218455
0.01128275238
0.01131948869
0.01135008841
0.011379652
0.01140435543
0.01142824386
0.01144981203
0.01146916937
0.01148643208
0.01150171466
0.01151512924
0.01152678479
0.01153678577
0.01154523065
0.01155221034
0.01155780611
0.01156208605
0.01156509847
0.01156685972
0.01156732736
0.01156642904
0.0115646577
0.01156206471
0.01155865515
0.01155444867
0.01154947202
0.01154375562
0.01153733144
0.01153023178
0.01152248846
0.0115141324
0.01150519343
0.0114957001
0.01148567966
0.0114751581
0.01146416014
0.01145270931
0.01144082795
0.01142853733
0.01141585767
0.01140280821
0.01138940725
0.01137567225
0.0113616198
0.01134726573
0.01133262513
0.01131771239
0.01130254124
0.01128712479
0.01127147555
0.01125560549
0.01123952602
0.01122324807
0.01120678209
0.01119013807
0.01117332554
0.01115635367
0.01113923121
0.01112196654
0.01110456769
0.01108704236
0.0110693979
0.01105164138
0.01103377957
0.01101581894
0.01099776571
0.01097962587
0.0109614051
0.01094310891
0.01092474254
0.01090631104
0.01088781925
0.01086927182
0.01085067319
0.01083202765
0.0108133393
0.01079461207
0.01077584972
0.01075705591
0.0107382341
0.01071938763
0.01070051971
0.01068163341
0.0106627317
0.01064381739
0.01062489321
0.01060596179
0.01058702561
0.01056808709
0.01054914855
0.01053021219
0.01051128015
0.01049235447
0.01047343711
0.01045452996
0.01043563483
0.01041675344
0.01039788748
0.01037903852
0.01036020812
0.01034139776
0.01032260883
0.01030384271
0.0102851007
0.01026638406
0.01024769398
0.01022903162
0.0102103981
0.01019179447
0.01017322178
0.010154681
0.01013617306
0.01011769888
0.01009925933
0.01008085526
0.01006248746
0.01004415672
0.01002586378
0.01000760934
0.009989394106
0.009971218734
0.009953083865
0.009934990106
0.009916938043
0.009898928252
0.009880961276
0.009863037636
0.009845157843
0.009827322387
0.009809531734
0.009791786341
0.009774086642
0.009756433045
0.009738825969
0.009721265809
0.009703752931
0.009686287705
0.009668870486
0.009651501603
0.009634181381
0.009616910139
0.009599688181
0.009582515804
0.009565393283
0.009548320897
0.009531298906
0.009514327556
0.009497407098
0.009480537764
0.009463719788
0.009446953379
0.009430238739
0.009413576073
0.009396965575
0.009380407426
0.009363901804
0.009347448868
0.009331048779
0.009314701694
0.009298407751
0.009282167078
0.009265979812
0.009249846071
0.009233765955
0.009217739568
0.009201767013
0.009185848372
0.009169983719
0.009154173125
0.009138416649
0.009122714347
0.009107066272
0.009091472445
0.009075932897
0.009060447658
0.009045016729
0.00902964011
0.009014317798
0.008999049784
0.008983836042
0.008968676531
0.008953571217
0.008938520055
0.00892352298
0.008908579932
0.008893690835
0.008878855607
0.008864074156
0.008849346384
0.00883467219
0.008820051453
0.008805484046
0.008790969851
0.008776508727
0.008762100529
0.008747745109
0.008733442302
0.008719191953
0.008704993892
0.008690847937
0.008676753909
0.008662711622
0.008648720878
0.008634781483
0.008620893229
0.008607055919
0.008593269337
0.008579533267
0.008565847498
0.008552211802
0.008538625957
0.008525089741
0.008511602917
0.008498165264
0.008484776549
0.008471436532
0.008458144989
0.008444901683
0.00843170638
0.008418558846
0.008405458844
0.008392406153
0.008379400533
0.008366441751
0.008353529582
0.008340663799
0.008327844177
0.008315070498
0.008302342539
0.008289660083
0.008277022917
0.00826443083
0.008251883622
0.00823938108
0.008226923006
0.00821450921
0.008202139501
0.008189813685
0.00817753158
0.008165293018
0.008153097813
0.008140945798
0.008128836815
0.0081167707
0.0081047473
0.00809276646
0.008080828034
0.008068931886
0.008057077876
0.008045265877
0.00803349576
0.008021767402
0.008010080688
0.007998435505
0.007986831744
0.007975269301
0.007963748079
0.007952267983
0.007940828919
0.007929430803
0.007918073552
0.007906757092
0.007895481344
0.007884246233
0.007873051697
0.007861897674
0.007850784102
0.00783971092
0.007828678073
0.007817685516
0.007806733196
0.007795821069
0.007784949093
0.007774117221
0.007763325418
0.00775257365
0.007741861879
0.007731190076
0.007720558207
0.007709966241
0.007699414152
0.007688901915
0.007678429503
0.007667996892
0.007657604058
0.007647250975
0.007636937626
0.00762666399
0.007616430036
0.00760623575
0.007596081114
0.007585966101
0.007575890692
0.007565854863
0.007555858593
0.007545901859
0.00753598464
0.007526106909
0.007516268639
0.007506469806
0.007496710383
0.007486990342
0.007477309651
0.007467668275
0.007458066185
0.007448503346
0.007438979717
0.007429495259
0.007420049936
0.007410643699
0.007401276504
0.007391948305
0.007382659047
0.007373408682
0.007364197152
0.007355024398
0.007345890359
0.007336794969
0.007327738163
0.007318719871
0.007309740019
0.007300798531
0.007291895331
0.007283030332
0.00727420345
0.007265414597
0.007256663681
0.007247950607
0.007239275277
0.007230637585
0.007222037429
0.007213474703
0.007204949293
0.007196461086
0.007188009964
0.007179595806
0.00717121849
0.007162877886
0.007154573867
0.007146306302
0.007138075054
0.007129879986
0.007121720957
0.007113597826
0.007105510446
0.00709745867
0.00708944235
0.007081461333
0.007073515465
0.007065604592
0.007057728556
0.007049887198
0.007042080357
0.007034307873
0.007026569579
0.007018865314
0.007011194911
0.007003558202
0.00699595502
0.006988385197
0.006980848564
0.00697334495
0.006965874182
0.006958436089
0.006951030496
0.006943657233
0.006936316123
0.006929006988
0.006921729651
0.006914483933
0.00690726965
0.006900086618
0.006892934651
0.006885813555
0.006878723133
0.006871663182
0.006864633492
0.00685763384
0.006850663994
0.006843723708
0.006836812713
0.006829930721
0.006823077414
0.006816252441
0.006809455406
0.006802685862
0.006795943298
0.006789227124
0.00678253666
0.006775871111
0.006769229555
0.006762610911
0.006756013913
0.006749437065
0.006742878537
0.006736335951
0.006729805836
0.006723282239
0.006716753235
0.006710192297
0.006703537895
0.006697605504
0.006691737135
0.006685838594
0.006679737824
0.006673434151
0.006667170718
0.006660932613
0.00665470981
0.006648492987
0.006642268508
0.006636008946
0.006629651944
0.006623993167
0.006618390293
0.006612774426
0.006606958781
0.006600910601
0.006594877583
0.006588821109
0.006582673945
0.006577215448
0.006571819862
0.00656635412
0.006560609462
0.0065547351
0.006548839718
0.006542853833
0.006537552662
0.006532105643
0.006526839368
0.006521483058
0.006516311488
0.006510923445
0.006505579784
0.006500106227
0.00649459532
0.00648906205
0.006483490078
0.006477817779
0.006472789642
0.006467806015
0.006462723373
0.006457215887
0.006452287762
0.00644728103
0.006442363492
0.006437437062
0.006432543441
0.006427593637
0.006422543509
0.006417363034
0.006412182619
0.006406933456
0.006402305088
0.006397609521
0.006392846308
0.006388003097
0.006383028633
0.00637804216
0.006373055973
0.006368033718
0.006362902549
0.006358347013
0.006353774573
0.0063492135
0.006344681403
0.006340208661
0.006335677179
0.006331245665
0.006326828401
0.006322178445
0.006317588255
0.006312920443
0.006308187156
0.006303355473
0.006299107994
0.006294904876
0.00629070444
0.006286350136
0.006281742622
0.006277078289
0.006273003098
0.006268880094
0.006264660857
0.006260379914
0.006255982433
0.006251581818
0.006247146711
0.006242613484
0.006238633099
0.00623468556
0.006230744381
0.0062266307
0.006222270053
0.006217837282
0.006213961985
0.006210128382
0.006206269595
0.006202210144
0.006197874854
0.006194103358
0.006190225229
0.006186474762
0.006182743448
0.006179030595
0.006175191833
0.006171034609
0.006167361245
0.006163702284
0.006159966936
0.006156347034
0.006152697995
0.006149177863
0.006145461112
0.006141838687
0.006138335659
0.006134776139
0.006131289169
0.0061277816
0.006124394562
0.006120870167
0.006117527934
0.006114043627
0.006110737961
0.006107325808
0.006104046963
0.006100686217
0.006097441135
0.006094127077
0.006090905554
0.006087634753
0.006084451118
0.006081261863
0.006078151703
0.006074939974
0.006071810568
0.006068714885
0.006065526374
0.006062618345
0.006059495515
0.006056571948
0.006053573537
0.006050714244
0.006047722158
0.006044962462
0.006042061329
0.006039274846
0.006036316051
0.006033336094
0.006030366918
0.006027409034
0.006024463207
0.006021530372
0.006018610648
0.006015703843
0.006012809982
0.006009929486
0.00600706313
0.006004211894
0.006001376963
0.005998560849
0.005995771705
0.005993030577
0.005990379297
0.005987781378
0.00598521231
0.005982621656
0.005979932615
0.005977610623
0.005975209127
0.005972721494
0.005970434931
0.005968007602
0.005965755367
0.005963175374
0.005960947759
0.005958399344
0.005955889081
0.005953403288
0.005950931193
0.005948467295
0.005946008581
0.005943552876
0.005941098241
0.005938642775
0.005936184516
0.0059337214
0.005931251222
0.005928771624
0.005926280076
0.005923773867
0.005921250094
0.005918705653
0.005916137233
0.0059135413
0.005910914098
0.005908251636
0.005905549686
0.005902803773
0.005900009181
0.005897160949
0.005894253883
0.005891282584
0.00588824149
0.005885124948
0.005881927167
0.00587864145
0.005875257387
0.005871758344
0.005868154385
0.005864730025
0.005861553745
0.005857789996
0.005853778935
0.005849648619
0.005845378148
0.005840955538
0.005836374188
0.005831631384
0.005826717418
0.005821563035
0.005817167258
0.005812061843
0.005806477634
0.005800632987
0.005794550068
0.005788220481
0.00578163584
0.005774786361
0.00576766169
0.005760251304
0.005752544579
0.005744530789
0.00573619911
0.005727538647
0.005718538459
0.005709187596
0.005699475124
0.005689390167
0.00567892193
0.005668059736
0.00565679306
0.005645111568
0.005633005148
0.005620463955
0.005607478453
0.005594039463
0.005580138221
0.005565766432
0.005550916349
0.005535580871
0.00551975365
0.005503429246
0.00548660334
0.005469273048
0.005451437413
0.005433097705
0.005414255347
0.005394901607
0.005375014382
0.00535477383
0.005335266924
0.00531813475
0.005297931722
0.005275921445
0.005253461442
0.00523052903
0.005207121313
0.00518324652
0.005158917106
0.005134146971
0.005108950732
0.005083343665
0.005057341799
0.005030962001
0.005004222026
0.004977140563
0.004949737236
0.004922032615
0.004894048192
0.004865806371
0.004837330448
0.004808644566
0.004779773665
0.004750743456
0.004721580373
0.004692311513
0.004662964605
0.004633567972
0.004604150493
0.004574741583
0.004545371215
0.004516069935
0.004486868905
0.004457800009
0.004428895995
0.004400190644
0.004371719036
0.004343517888
0.00431562595
0.004288084455
0.004260937582
0.004234232788
0.004208020916
0.004182355929
0.004157294439
0.004132896
0.004109226402
0.004086367985
0.004064442792
0.004043655805
0.00402436749
0.004007211074
0.003993289879
0.003984544122
)
;

boundaryField
{
    base
    {
        type            empty;
    }
    outlet
    {
        type            zeroGradient;
    }
    inlet
    {
        type            fixedValue;
        value           uniform 0;
    }
}


// ************************************************************************* //
