/*--------------------------------*- C++ -*----------------------------------*\
| =========                 |                                                 |
| \\      /  F ield         | OpenFOAM: The Open Source CFD Toolbox           |
|  \\    /   O peration     | Version:  v1712                                 |
|   \\  /    A nd           | Web:      www.OpenFOAM.com                      |
|    \\/     M anipulation  |                                                 |
\*---------------------------------------------------------------------------*/
FoamFile
{
    version     2.0;
    format      ascii;
    class       volScalarField;
    location    "0.001";
    object      p;
}
// * * * * * * * * * * * * * * * * * * * * * * * * * * * * * * * * * * * * * //

dimensions      [1 -1 -2 0 0 0 0];


internalField   nonuniform List<scalar> 
1500
(
100093.097
100093.0969
100093.0968
100093.0967
100093.0963
100093.0947
100093.0952
100093.094
100093.0942
100093.0935
100093.0928
100093.0923
100093.0919
100093.0915
100093.0896
100093.0896
100093.0895
100093.0892
100093.089
100093.0885
100093.0875
100093.0862
100093.0844
100093.0846
100093.0833
100093.0826
100093.0819
100093.0811
100093.0802
100093.0819
100093.0813
100093.088
100093.0803
100093.0828
100093.0837
100093.0856
100093.0853
100093.086
100093.0858
100093.0858
100093.0856
100093.0851
100093.0885
100093.0872
100093.0891
100093.0929
100093.0924
100093.0812
100093.0839
100093.0866
100093.0892
100093.0917
100093.0926
100093.0934
100093.0943
100093.0947
100093.0962
100093.0947
100093.0936
100093.0944
100093.0939
100093.0932
100093.0915
100093.0921
100093.0924
100093.0929
100093.0935
100093.0941
100093.0947
100093.0937
100093.0961
100093.0949
100093.0942
100093.0937
100093.0935
100093.0933
100093.093
100093.0945
100093.0946
100093.0939
100093.0945
100093.0955
100093.0964
100093.0971
100093.0974
100093.0977
100093.0978
100093.098
100093.0983
100093.0981
100093.0983
100093.0983
100093.0984
100093.0984
100093.0982
100093.098
100093.0979
100093.0977
100093.0974
100093.0973
100093.0972
100093.0971
100093.097
100093.097
100093.0971
100093.0973
100093.0974
100093.0977
100093.098
100093.0983
100093.0987
100093.0991
100093.0995
100093.0999
100093.1003
100093.1007
100093.1011
100093.1014
100093.1017
100093.1021
100093.1024
100093.1027
100093.1029
100093.1032
100093.1035
100093.1037
100093.1039
100093.1041
100093.1043
100093.1045
100093.1046
100093.1048
100093.1049
100093.1051
100093.1052
100093.1053
100093.1054
100093.1055
100093.1056
100093.1058
100093.1059
100093.106
100093.1062
100093.1063
100093.1065
100093.1067
100093.1069
100093.1072
100093.1074
100093.1077
100093.108
100093.1083
100093.1086
100093.109
100093.1093
100093.1097
100093.1101
100093.1105
100093.1109
100093.1113
100093.1117
100093.1121
100093.1125
100093.1129
100093.1133
100093.1137
100093.1141
100093.1145
100093.1149
100093.1153
100093.1157
100093.1161
100093.1165
100093.1169
100093.1173
100093.1178
100093.1182
100093.1186
100093.119
100093.1194
100093.1199
100093.1203
100093.1207
100093.1212
100093.1216
100093.122
100093.1225
100093.1229
100093.1234
100093.1239
100093.1243
100093.1248
100093.1253
100093.1258
100093.1263
100093.1268
100093.1273
100093.1278
100093.1283
100093.1288
100093.1293
100093.1299
100093.1304
100093.1308
100093.1313
100093.1318
100093.1323
100093.1327
100093.1332
100093.1336
100093.134
100093.1345
100093.1349
100093.1353
100093.1358
100093.1362
100093.1367
100093.1372
100093.1377
100093.1382
100093.1387
100093.1393
100093.1399
100093.1404
100093.141
100093.1416
100093.1423
100093.1429
100093.1436
100093.1443
100093.145
100093.1457
100093.1465
100093.1472
100093.148
100093.1488
100093.1495
100093.1503
100093.151
100093.1513
100093.1515
100093.1518
100093.1521
100093.1526
100093.1532
100093.1539
100093.1546
100093.1552
100093.1558
100093.1565
100093.157
100093.1576
100093.1583
100093.1588
100093.1593
100093.1599
100093.1607
100093.1613
100093.1621
100093.1628
100093.1635
100093.1643
100093.1649
100093.1656
100093.1664
100093.1671
100093.1678
100093.1686
100093.1694
100093.1702
100093.171
100093.1717
100093.1725
100093.1734
100093.1741
100093.1749
100093.1758
100093.1765
100093.1773
100093.1782
100093.179
100093.1799
100093.1808
100093.1817
100093.1826
100093.1835
100093.1844
100093.1853
100093.1863
100093.1873
100093.1882
100093.1891
100093.1901
100093.191
100093.1919
100093.1929
100093.1939
100093.1948
100093.1957
100093.1966
100093.1975
100093.1984
100093.1993
100093.2001
100093.201
100093.2019
100093.2028
100093.2038
100093.2047
100093.2056
100093.2065
100093.2075
100093.2085
100093.2095
100093.2105
100093.2116
100093.2127
100093.2138
100093.2149
100093.2161
100093.2173
100093.2185
100093.2197
100093.2209
100093.2221
100093.2234
100093.2246
100093.2259
100093.2271
100093.2283
100093.2296
100093.2308
100093.232
100093.2333
100093.2345
100093.2357
100093.2369
100093.2381
100093.2393
100093.2405
100093.2417
100093.2429
100093.2441
100093.2453
100093.2466
100093.2478
100093.2491
100093.2504
100093.2517
100093.253
100093.2544
100093.2557
100093.2571
100093.2585
100093.2598
100093.2612
100093.2626
100093.264
100093.2654
100093.2668
100093.2681
100093.2695
100093.2709
100093.2722
100093.2735
100093.2748
100093.2761
100093.2774
100093.2786
100093.2798
100093.281
100093.2821
100093.2833
100093.2844
100093.2855
100093.2867
100093.2878
100093.2889
100093.29
100093.2912
100093.2923
100093.2935
100093.2948
100093.296
100093.2973
100093.2987
100093.3001
100093.3015
100093.303
100093.3046
100093.3062
100093.3079
100093.3096
100093.3114
100093.3132
100093.3151
100093.317
100093.319
100093.321
100093.323
100093.3251
100093.3271
100093.3292
100093.3313
100093.3334
100093.3355
100093.3375
100093.3396
100093.3417
100093.3437
100093.3457
100093.3476
100093.3495
100093.3514
100093.3532
100093.355
100093.3568
100093.3585
100093.3602
100093.3619
100093.3635
100093.3651
100093.3667
100093.3683
100093.3698
100093.3713
100093.3728
100093.3743
100093.3759
100093.3774
100093.3789
100093.3804
100093.382
100093.3835
100093.3851
100093.3866
100093.3882
100093.3898
100093.3914
100093.3931
100093.3947
100093.3963
100093.398
100093.3996
100093.4012
100093.4028
100093.4044
100093.406
100093.4076
100093.4091
100093.4106
100093.4121
100093.4136
100093.4151
100093.4165
100093.4179
100093.4193
100093.4207
100093.4221
100093.4235
100093.4249
100093.4263
100093.4277
100093.4291
100093.4305
100093.432
100093.4335
100093.435
100093.4365
100093.4381
100093.4397
100093.4414
100093.4431
100093.4448
100093.4465
100093.4483
100093.4501
100093.4518
100093.4536
100093.4554
100093.4572
100093.4589
100093.4607
100093.4624
100093.464
100093.4657
100093.4673
100093.4688
100093.4703
100093.4717
100093.4731
100093.4745
100093.4758
100093.477
100093.4783
100093.4795
100093.4808
100093.482
100093.4832
100093.4845
100093.4858
100093.4871
100093.4884
100093.4898
100093.4913
100093.4928
100093.4944
100093.4961
100093.4978
100093.4996
100093.5015
100093.5034
100093.5054
100093.5074
100093.5094
100093.5115
100093.5135
100093.5156
100093.5177
100093.5197
100093.5217
100093.5237
100093.5256
100093.5274
100093.5291
100093.5308
100093.5324
100093.5339
100093.5354
100093.5367
100093.538
100093.5392
100093.5404
100093.5415
100093.5426
100093.5437
100093.5447
100093.5458
100093.5469
100093.548
100093.5492
100093.5505
100093.5518
100093.5533
100093.5549
100093.5566
100093.5584
100093.5604
100093.5625
100093.5647
100093.5671
100093.5696
100093.5722
100093.5749
100093.5776
100093.5805
100093.5834
100093.5864
100093.5893
100093.5922
100093.5951
100093.598
100093.6007
100093.6033
100093.6058
100093.6082
100093.6104
100093.6124
100093.6142
100093.6158
100093.6172
100093.6184
100093.6194
100093.6202
100093.6209
100093.6214
100093.6217
100093.622
100093.6222
100093.6223
100093.6224
100093.6225
100093.6226
100093.6229
100093.6233
100093.6238
100093.6245
100093.6255
100093.6267
100093.6282
100093.63
100093.6321
100093.6345
100093.6372
100093.6402
100093.6435
100093.6471
100093.651
100093.6551
100093.6593
100093.6637
100093.6682
100093.6727
100093.6772
100093.6816
100093.6859
100093.69
100093.6939
100093.6974
100093.7007
100093.7035
100093.7059
100093.7079
100093.7093
100093.7103
100093.7108
100093.7108
100093.7104
100093.7094
100093.7081
100093.7064
100093.7044
100093.7021
100093.6997
100093.6971
100093.6945
100093.692
100093.6896
100093.6874
100093.6855
100093.6841
100093.683
100093.6825
100093.6825
100093.6832
100093.6844
100093.6864
100093.689
100093.6923
100093.6962
100093.7007
100093.7058
100093.7115
100093.7177
100093.7243
100093.7312
100093.7383
100093.7457
100093.753
100093.7604
100093.7676
100093.7746
100093.7812
100093.7874
100093.7932
100093.7983
100093.8027
100093.8064
100093.8093
100093.8114
100093.8125
100093.8126
100093.8117
100093.8099
100093.807
100093.8031
100093.7981
100093.7924
100093.7859
100093.7785
100093.7703
100093.7615
100093.7524
100093.743
100093.7336
100093.7244
100093.7157
100093.7076
100093.7006
100093.6949
100093.6908
100093.6885
100093.6882
100093.6901
100093.6945
100093.7013
100093.7105
100093.722
100093.7356
100093.7511
100093.7683
100093.7864
100093.8053
100093.8244
100093.843
100093.8608
100093.8771
100093.8915
100093.9035
100093.9129
100093.9195
100093.9233
100093.9248
100093.9244
100093.923
100093.9216
100093.921
100093.9211
100093.9214
100093.9208
100093.9174
100093.9097
100093.8975
100093.8837
100093.876
100093.8863
100093.9283
100094.0152
100094.1547
100094.3419
100094.5738
100094.868
100095.0142
100095.5242
100091.5937
100091.9582
100091.7652
100091.5937
100091.2889
100090.9235
100090.5223
100090.1569
100089.7313
100089.2683
100088.7876
100088.296
100087.7997
100087.3085
100086.8347
100086.3837
100085.9437
100085.4543
100084.962
100084.2094
100083.9304
100083.5119
100083.4716
100082.6722
100082.1773
100081.6958
100081.2643
100080.8749
100080.5163
100080.1783
100079.8507
100079.507
100079.1847
100078.9276
100078.6808
100078.4159
100078.1314
100077.8575
100077.6283
100077.4291
100077.2332
100077.0289
100076.8282
100076.634
100076.4468
100076.2666
100076.093
100075.9258
100075.7646
100075.6092
100075.4592
100075.3145
100075.1748
100075.0398
100074.9095
100074.7836
100074.6619
100074.5444
100074.4307
100074.3205
100074.2125
100074.1002
100073.9987
100073.9012
100073.7998
100073.7175
100073.6328
100073.5496
100073.4686
100073.3902
100073.3141
100073.2404
100073.169
100073.0998
100073.0327
100072.9675
100072.9041
100072.8423
100072.7813
100072.717
100072.6602
100072.6116
100072.56
100072.5084
100072.4578
100072.4083
100072.36
100072.3129
100072.2667
100072.2216
100072.1775
100072.1343
100072.0919
100072.0504
100072.0097
100071.9698
100071.9306
100071.8921
100071.8543
100071.8171
100071.7806
100071.7447
100071.7093
100071.6745
100071.6403
100071.6067
100071.5735
100071.5408
100071.5087
100071.477
100071.4458
100071.415
100071.3847
100071.3549
100071.3254
100071.2964
100071.2677
100071.2395
100071.2116
100071.1842
100071.157
100071.1303
100071.1039
100071.0778
100071.052
100071.0266
100071.0015
100070.9767
100070.9521
100070.9279
100070.9039
100070.8802
100070.8568
100070.8336
100070.8107
100070.788
100070.7656
100070.7434
100070.7214
100070.6997
100070.6781
100070.6568
100070.6357
100070.6148
100070.5941
100070.5736
100070.5533
100070.5332
100070.5133
100070.4936
100070.4741
100070.4548
100070.4356
100070.4167
100070.3979
100070.3794
100070.361
100070.3428
100070.3248
100070.307
100070.2894
100070.2719
100070.2547
100070.2376
100070.2208
100070.2041
100070.1876
100070.1713
100070.1552
100070.1392
100070.1235
100070.1079
100070.0925
100070.0773
100070.0623
100070.0474
100070.0328
100070.0183
100070.004
100069.9898
100069.9758
100069.962
100069.9484
100069.9349
100069.9215
100069.9084
100069.8953
100069.8825
100069.8697
100069.8572
100069.8447
100069.8324
100069.8203
100069.8082
100069.7963
100069.7845
100069.7729
100069.7613
100069.7499
100069.7386
100069.7273
100069.7162
100069.7052
100069.6943
100069.6835
100069.6728
100069.6622
100069.6516
100069.6412
100069.6308
100069.6205
100069.6103
100069.6002
100069.5901
100069.5801
100069.5702
100069.5603
100069.5505
100069.5408
100069.5312
100069.5216
100069.5121
100069.5026
100069.4932
100069.4839
100069.4746
100069.4653
100069.4562
100069.4471
100069.438
100069.429
100069.4201
100069.4112
100069.4024
100069.3937
100069.385
100069.3763
100069.3677
100069.3592
100069.3507
100069.3423
100069.334
100069.3257
100069.3174
100069.3093
100069.3012
100069.2931
100069.2851
100069.2772
100069.2693
100069.2615
100069.2537
100069.246
100069.2384
100069.2308
100069.2233
100069.2158
100069.2084
100069.2011
100069.1938
100069.1866
100069.1794
100069.1723
100069.1653
100069.1583
100069.1513
100069.1445
100069.1376
100069.1309
100069.1242
100069.1175
100069.1109
100069.1044
100069.0979
100069.0914
100069.085
100069.0787
100069.0724
100069.0661
100069.0599
100069.0538
100069.0477
100069.0416
100069.0356
100069.0296
100069.0237
100069.0178
100069.0119
100069.0061
100069.0004
100068.9947
100068.989
100068.9833
100068.9777
100068.9722
100068.9666
100068.9611
100068.9557
100068.9503
100068.9449
100068.9395
100068.9342
100068.9289
100068.9237
100068.9185
100068.9133
100068.9082
100068.9031
100068.898
100068.8929
100068.8879
100068.8829
100068.878
100068.8731
100068.8682
100068.8634
100068.8585
100068.8538
100068.849
100068.8443
100068.8396
100068.8349
100068.8303
100068.8257
100068.8211
100068.8166
100068.8121
100068.8076
100068.8032
100068.7988
100068.7944
100068.7901
100068.7858
100068.7815
100068.7772
100068.773
100068.7688
100068.7646
100068.7605
100068.7564
100068.7523
100068.7483
100068.7443
100068.7403
100068.7363
100068.7324
100068.7285
100068.7247
100068.7208
100068.717
100068.7132
100068.7095
100068.7057
100068.702
100068.6984
100068.6947
100068.6911
100068.6875
100068.6839
100068.6804
100068.6768
100068.6733
100068.6699
100068.6664
100068.663
100068.6596
100068.6562
100068.6528
100068.6495
100068.6462
100068.6429
100068.6396
100068.6364
100068.6332
100068.63
100068.6268
100068.6236
100068.6205
100068.6174
100068.6143
100068.6112
100068.6081
100068.6051
100068.6021
100068.5991
100068.5961
100068.5931
100068.5902
100068.5872
100068.5843
100068.5815
100068.5786
100068.5757
100068.5729
100068.5701
100068.5673
100068.5645
100068.5618
100068.559
100068.5563
100068.5536
100068.551
100068.5483
100068.5457
100068.543
100068.5404
100068.5378
100068.5353
100068.5327
100068.5302
100068.5277
100068.5252
100068.5227
100068.5202
100068.5178
100068.5154
100068.513
100068.5106
100068.5082
100068.5059
100068.5036
100068.5013
100068.499
100068.4967
100068.4945
100068.4922
100068.49
100068.4878
100068.4857
100068.4835
100068.4814
100068.4793
100068.4772
100068.4751
100068.4731
100068.471
100068.469
100068.467
100068.4651
100068.4631
100068.4612
100068.4592
100068.4573
100068.4554
100068.4536
100068.4517
100068.4499
100068.448
100068.4462
100068.4444
100068.4426
100068.4408
100068.439
100068.4373
100068.4355
100068.4337
100068.432
100068.4303
100068.4285
100068.4267
100068.4246
100068.4224
100068.4207
100068.4193
100068.4179
100068.4164
100068.4148
100068.4132
100068.4115
100068.4098
100068.4081
100068.4064
100068.4044
100068.4024
100068.4007
100068.3994
100068.3982
100068.3969
100068.3954
100068.3938
100068.3919
100068.39
100068.3886
100068.3875
100068.3867
100068.3863
100068.3865
100068.386
100068.3867
100068.373
100068.3732
100068.3804
100068.378
100068.372
100068.38
100068.3768
100068.375
100068.3729
100068.3713
100068.3699
100068.3688
100068.3682
100068.3677
100068.3673
100068.3665
100068.3646
100068.364
100068.3545
100068.3581
100068.3506
100068.3612
100068.3605
100068.3606
100068.3597
100068.3577
100068.356
100068.3455
100068.3557
100068.3522
100068.3513
100068.3501
100068.3493
100068.3486
100068.348
100068.3476
100068.3469
100068.346
100068.3445
100068.3417
100068.3402
100068.3387
100068.3376
100068.337
100068.3364
100068.3359
100068.3353
100068.3347
100068.3345
100068.3345
100068.3347
100068.3346
100068.3344
100068.3334
100068.3325
100068.3265
100068.3327
100068.3317
100068.3315
100068.3309
100068.3302
100068.3295
100068.3291
100068.3288
100068.3285
100068.3281
100068.3274
100068.3267
100068.3262
100068.3263
100068.3269
100068.3272
100068.3288
100068.3207
100068.3223
100068.3229
100068.323
100068.3234
100068.3227
100068.3219
100068.321
100068.3209
100068.3196
100068.3194
100068.3174
100068.3252
100068.3192
100068.3174
100068.3164
100068.3147
100068.3137
100068.3107
100068.3165
100068.3162
100068.3233
100068.3243
100068.3166
100068.3167
100068.3158
100068.3157
100068.3142
100068.3136
100068.3126
100068.3135
100068.3153
100068.3184
100068.3141
100068.3095
100068.3129
100068.3136
100068.3128
100068.3205
100068.3192
100068.3162
100068.3129
100068.318
100068.3154
100068.3209
100068.3164
100068.3164
100068.3163
100068.3166
100068.3169
100068.3173
100068.3175
100068.3178
100068.318
100068.3181
100068.3183
100068.3184
100068.3185
100068.3186
100068.3187
100068.3187
100068.3188
100068.3189
100068.3191
100068.3194
100068.3199
100068.3201
100068.3214
100068.3159
100068.3243
100068.3249
100068.3204
100068.3213
100068.3215
100068.322
100068.3223
100068.3227
100068.3231
100068.3235
100068.3238
100068.3242
100068.3245
100068.3248
100068.3251
100068.3254
100068.3257
100068.326
100068.3262
100068.3265
100068.3268
100068.3271
100068.3274
100068.3276
100068.3279
100068.3281
100068.3283
100068.3286
100068.3288
100068.329
100068.3292
100068.3294
100068.3296
100068.3298
100068.33
100068.3303
100068.3306
100068.3311
100068.3315
100068.332
100068.3322
100068.3328
100068.3333
100068.3338
100068.3343
100068.3347
100068.3351
100068.3355
100068.3359
100068.3363
100068.3368
100068.3372
100068.3377
100068.3382
100068.3387
100068.3392
100068.3398
100068.3403
100068.3409
100068.3415
100068.3421
100068.3427
100068.3433
100068.344
100068.3446
100068.3454
100068.3461
100068.3469
100068.3477
100068.3485
100068.3494
100068.3503
100068.3512
100068.3522
100068.3531
100068.3541
100068.355
100068.3559
100068.3566
100068.3572
100068.3576
100068.3578
100068.3578
100068.3577
100068.3576
100068.3576
100068.3578
100068.3583
100068.3589
100068.36
100068.3597
100068.3616
100068.361
100068.3623
100068.3627
100068.3632
100068.3634
100068.3633
100068.3632
100068.3631
100068.3632
100068.3635
100068.3641
100068.3648
100068.3657
100068.3666
100068.3677
100068.3687
100068.3698
100068.3709
100068.372
100068.373
100068.374
100068.3749
100068.3758
100068.3767
100068.3776
100068.3784
100068.3792
100068.3799
100068.3807
100068.3814
100068.3821
100068.3828
100068.3835
100068.3842
100068.3849
100068.3856
100068.3863
100068.3869
100068.3876
100068.3883
100068.3889
100068.3895
100068.3902
100068.3908
100068.3914
100068.392
100068.3926
100068.3931
100068.3937
100068.3941
100068.3946
100068.3954
100068.3997
)
;

boundaryField
{
    base
    {
        type            empty;
    }
    outlet
    {
        type            zeroGradient;
    }
    inlet
    {
        type            zeroGradient;
    }
}


// ************************************************************************* //
