/*--------------------------------*- C++ -*----------------------------------*\
| =========                 |                                                 |
| \\      /  F ield         | OpenFOAM: The Open Source CFD Toolbox           |
|  \\    /   O peration     | Version:  v1712                                 |
|   \\  /    A nd           | Web:      www.OpenFOAM.com                      |
|    \\/     M anipulation  |                                                 |
\*---------------------------------------------------------------------------*/
FoamFile
{
    version     2.0;
    format      ascii;
    class       volScalarField;
    location    "0.001";
    object      T;
}
// * * * * * * * * * * * * * * * * * * * * * * * * * * * * * * * * * * * * * //

dimensions      [0 0 0 1 0 0 0];


internalField   nonuniform List<scalar> 
1500
(
300.0008198
300.0025312
300.0051061
300.0085322
300.0128086
300.017971
300.0234959
300.0297313
300.0366336
300.0420351
300.0498344
300.0555017
300.0609371
300.0661389
300.071235
300.0752335
300.0776319
300.078942
300.0790012
300.0777574
300.07531
300.0715086
300.0655263
300.0555676
300.0469399
300.035468
300.0209957
299.9988865
299.9845304
299.9685654
299.9464133
299.9260143
299.9028116
299.886644
299.8705438
299.8551252
299.8452891
299.8352262
299.8293104
299.8265126
299.8267345
299.8306808
299.8425989
299.8560073
299.8721021
299.8894657
299.9116166
299.939605
299.9697306
300.0082084
300.0409303
300.0707947
300.0998638
300.1269703
300.1515599
300.1726978
300.192974
300.2143277
300.2312994
300.2444217
300.2520761
300.2573479
300.2597084
300.2595972
300.2572264
300.2530142
300.247293
300.24008
300.231365
300.2225435
300.2097676
300.1992433
300.1875407
300.1769354
300.165584
300.1558277
300.147875
300.1378071
300.1307185
300.1237099
300.1177126
300.1123073
300.1075085
300.1034695
300.0995423
300.0966052
300.0939975
300.0918384
300.0896821
300.0880653
300.0867181
300.0857252
300.0850113
300.0842591
300.0837406
300.0833584
300.0830521
300.0828536
300.0826405
300.0824861
300.0823697
300.0823044
300.0822636
300.082232
300.0822118
300.0822019
300.0821991
300.0822013
300.0822073
300.0822173
300.0822288
300.0822411
300.0822559
300.0822755
300.08229
300.0823059
300.0823257
300.0823439
300.0823668
300.0823811
300.0823977
300.0824127
300.0824273
300.0824435
300.0824639
300.08248
300.0824968
300.0825111
300.082526
300.0825438
300.0825585
300.0825724
300.0825869
300.0826009
300.0826146
300.0826291
300.0826413
300.0826547
300.0826669
300.0826797
300.0826923
300.0827021
300.0827144
300.0827257
300.082736
300.0827467
300.082756
300.0827652
300.0827742
300.0827838
300.0827928
300.0827993
300.0828068
300.0828144
300.0828208
300.0828263
300.0828315
300.0828363
300.0828409
300.0828449
300.0828487
300.082852
300.0828549
300.0828572
300.0828593
300.0828608
300.0828619
300.0828626
300.082863
300.0828629
300.0828626
300.0828622
300.0828614
300.0828605
300.0828592
300.082858
300.0828565
300.0828549
300.082853
300.0828503
300.0828475
300.0828449
300.0828413
300.0828389
300.0828359
300.0828333
300.08283
300.0828263
300.082823
300.0828197
300.0828163
300.0828132
300.0828102
300.0828068
300.0828033
300.0827998
300.0827957
300.0827918
300.0827878
300.0827839
300.0827795
300.0827743
300.082768
300.0827601
300.0827534
300.0827463
300.0827395
300.0827327
300.0827255
300.0827176
300.0827084
300.0826981
300.0826892
300.0826795
300.0826681
300.0826585
300.0826488
300.0826394
300.0826304
300.0826201
300.0826108
300.0826008
300.0825911
300.0825807
300.0825709
300.0825598
300.0825453
300.0825332
300.0825221
300.0825104
300.0825002
300.0824863
300.0824759
300.0824656
300.0824558
300.0824463
300.0824359
300.0824268
300.0824162
300.0824049
300.0823914
300.0823783
300.0823661
300.0823563
300.0823472
300.0823373
300.0823258
300.0823151
300.0823051
300.082296
300.0822861
300.0822767
300.0822683
300.0822586
300.0822479
300.0822383
300.0822289
300.0822185
300.0822102
300.0822013
300.0821918
300.0821824
300.0821734
300.082165
300.0821546
300.0821453
300.0821356
300.082127
300.0821179
300.0821069
300.0820967
300.0820878
300.0820791
300.0820701
300.0820609
300.0820509
300.0820421
300.0820339
300.0820257
300.0820172
300.0820091
300.0820011
300.081993
300.0819847
300.0819765
300.0819687
300.0819611
300.0819519
300.0819435
300.0819352
300.0819268
300.0819187
300.0819109
300.081903
300.0818955
300.0818881
300.0818802
300.0818727
300.0818656
300.0818581
300.0818505
300.0818431
300.081836
300.0818295
300.0818217
300.0818149
300.081808
300.081801
300.0817941
300.081787
300.0817796
300.0817735
300.0817675
300.0817616
300.0817546
300.0817468
300.0817379
300.0817318
300.0817263
300.0817211
300.0817162
300.0817118
300.0817068
300.0817021
300.0816975
300.0816923
300.0816865
300.0816814
300.0816767
300.081672
300.0816673
300.0816624
300.0816578
300.0816531
300.0816486
300.0816443
300.0816395
300.0816339
300.0816285
300.0816237
300.0816194
300.0816149
300.0816108
300.0816067
300.0816029
300.0815993
300.0815949
300.0815908
300.0815866
300.081582
300.081577
300.081571
300.0815665
300.0815625
300.0815589
300.0815554
300.0815519
300.0815481
300.081544
300.0815393
300.0815348
300.0815307
300.081527
300.081523
300.081519
300.0815155
300.0815117
300.0815082
300.0815044
300.0815009
300.0814971
300.0814934
300.0814897
300.0814859
300.081482
300.0814783
300.0814741
300.0814703
300.0814661
300.0814621
300.0814587
300.081455
300.0814502
300.0814456
300.0814411
300.0814373
300.0814337
300.0814302
300.0814271
300.0814241
300.0814211
300.0814181
300.0814155
300.0814128
300.0814103
300.0814078
300.0814055
300.0814032
300.0814007
300.0813985
300.0813963
300.081394
300.0813918
300.0813897
300.0813877
300.0813856
300.081383
300.0813808
300.0813779
300.0813759
300.0813737
300.0813715
300.0813693
300.0813673
300.081365
300.0813629
300.0813606
300.0813584
300.0813559
300.0813532
300.0813507
300.0813478
300.0813448
300.0813419
300.0813389
300.0813358
300.0813327
300.0813297
300.0813264
300.0813233
300.0813203
300.0813174
300.0813141
300.081311
300.081308
300.081305
300.081302
300.0812989
300.0812958
300.0812928
300.0812899
300.0812872
300.0812839
300.0812805
300.0812769
300.0812726
300.0812686
300.0812645
300.0812607
300.0812571
300.0812538
300.0812508
300.0812472
300.0812435
300.0812397
300.081235
300.0812304
300.0812259
300.0812217
300.0812176
300.0812143
300.0812113
300.0812084
300.081205
300.0812015
300.0811976
300.0811941
300.0811901
300.0811863
300.0811819
300.0811781
300.0811737
300.0811698
300.0811661
300.0811622
300.0811588
300.0811557
300.0811523
300.0811483
300.0811447
300.0811405
300.0811368
300.0811332
300.081129
300.0811251
300.0811214
300.0811176
300.0811136
300.0811096
300.0811055
300.0811013
300.0810965
300.0810921
300.0810882
300.0810841
300.0810801
300.081076
300.0810719
300.0810675
300.081063
300.081059
300.0810549
300.0810507
300.0810464
300.0810421
300.0810376
300.0810332
300.0810289
300.0810246
300.0810204
300.0810159
300.0810118
300.0810077
300.0810037
300.0809996
300.0809952
300.0809909
300.0809868
300.0809824
300.0809781
300.0809737
300.0809697
300.0809659
300.0809621
300.0809576
300.0809527
300.0809475
300.0809423
300.0809371
300.080931
300.0809255
300.0809201
300.0809145
300.0809093
300.080904
300.0808987
300.0808929
300.0808873
300.0808816
300.0808759
300.0808701
300.0808645
300.0808588
300.0808532
300.0808476
300.0808418
300.0808365
300.0808309
300.0808255
300.0808202
300.0808151
300.0808099
300.0808051
300.0808003
300.0807956
300.080791
300.0807865
300.0807821
300.0807778
300.0807735
300.0807688
300.0807646
300.08076
300.0807559
300.0807515
300.080747
300.0807426
300.0807378
300.0807331
300.0807282
300.0807232
300.080718
300.0807127
300.0807069
300.0807005
300.0806946
300.0806883
300.0806821
300.0806757
300.0806691
300.0806624
300.0806557
300.0806489
300.080642
300.080635
300.0806282
300.0806212
300.0806143
300.080607
300.0806008
300.0805947
300.0805888
300.0805831
300.0805778
300.0805726
300.0805677
300.0805632
300.0805589
300.0805549
300.0805509
300.0805474
300.080544
300.0805408
300.0805377
300.0805347
300.0805315
300.0805284
300.0805252
300.0805218
300.0805181
300.080514
300.08051
300.0805059
300.0805015
300.0804966
300.0804911
300.0804848
300.0804782
300.0804715
300.0804644
300.0804561
300.0804481
300.0804397
300.0804307
300.0804207
300.0804104
300.0803996
300.0803892
300.0803785
300.0803678
300.0803579
300.0803478
300.0803378
300.0803282
300.0803189
300.0803101
300.0803018
300.0802939
300.0802864
300.0802795
300.0802733
300.0802677
300.0802626
300.080258
300.080254
300.0802504
300.0802474
300.0802447
300.0802424
300.0802403
300.0802384
300.0802366
300.0802349
300.080233
300.0802311
300.0802289
300.0802264
300.0802234
300.08022
300.080216
300.0802114
300.0802061
300.0802001
300.0801932
300.0801855
300.0801769
300.0801674
300.080157
300.0801455
300.0801331
300.0801196
300.0801054
300.0800904
300.0800745
300.0800577
300.0800404
300.0800226
300.0800045
300.0799864
300.0799684
300.0799508
300.0799341
300.0799185
300.0799044
300.0798924
300.0798829
300.0798766
300.0798744
300.0798775
300.0798877
300.0799072
300.0799396
300.0799911
300.0800715
300.0801948
300.0803834
300.0806721
300.081115
300.0817958
300.0828441
300.0844604
300.0869534
300.0907991
300.09673
300.1058721
300.1199548
300.141631
300.1749669
300.2261881
300.3048179
300.4254095
300.6101778
300.8929914
301.3245818
301.9738025
302.9427002
304.3802173
306.1866092
308.8017903
312.8879452
318.9396154
327.6823811
340.1424307
357.5958187
380.0713951
406.0328845
439.74924
481.6490681
521.5187897
569.1092804
612.2107022
659.5928293
707.4463382
754.4532273
800.4304006
845.3371757
889.2072441
932.1060907
974.1040291
1015.258175
1055.58528
1094.99736
1133.216807
1170.030061
1203.694857
1235.964011
1267.331678
1298.726825
1329.509581
1358.948485
1387.110643
1414.070306
1439.873415
1464.550416
1488.146304
1510.729345
1530.573187
1549.672628
1568.983637
1587.438267
1605.112016
1620.688245
1635.443744
1649.776094
1664.175896
1677.958273
1691.163875
1703.830259
1715.992071
1727.681396
1738.927906
1749.759051
1760.20023
1770.274967
1780.005061
1789.410783
1798.511012
1807.323392
1815.864474
1824.149833
1832.194212
1840.011605
1847.615295
1855.017877
1862.231502
1869.266966
1875.590105
1882.219196
1888.198848
1894.444351
1900.530926
1906.467376
1912.261764
1917.920503
1923.449251
1928.853333
1934.137894
1939.307925
1944.368292
1949.323761
1954.179035
1958.938819
1963.607906
1968.189699
1972.323084
1976.678736
1980.950868
1985.140407
1989.250054
1993.28237
1997.239789
2001.124632
2004.939115
2008.685356
2012.36538
2015.981126
2019.534452
2023.027141
2026.460909
2029.837394
2033.158175
2036.424772
2039.638644
2042.801194
2045.913775
2048.977691
2051.994194
2054.964493
2057.889757
2060.77111
2063.609638
2066.406388
2069.162375
2071.878576
2074.555935
2077.195366
2079.797754
2082.363952
2084.894787
2087.391063
2089.853552
2092.283006
2094.680151
2097.045693
2099.380314
2101.684677
2103.959424
2106.205178
2108.422545
2110.612109
2112.774441
2114.910095
2117.019608
2119.103499
2121.16228
2123.196441
2125.206461
2127.192808
2129.155934
2131.096279
2133.014275
2134.910339
2136.784877
2138.638285
2140.470949
2142.283246
2144.07554
2145.84819
2147.601544
2149.335941
2151.051711
2152.749177
2154.428655
2156.090451
2157.734865
2159.362191
2160.972713
2162.566713
2164.144461
2165.706223
2167.252261
2168.782828
2170.298174
2171.798541
2173.284165
2174.755281
2176.212114
2177.654887
2179.083817
2180.499117
2181.900995
2183.289655
2184.665296
2186.028112
2187.378296
2188.716036
2190.041513
2191.354909
2192.656398
2193.946154
2195.224345
2196.491138
2197.746695
2198.991176
2200.224737
2201.44753
2202.659708
2203.861418
2205.052804
2206.234008
2207.405172
2208.566431
2209.717921
2210.859773
2211.992118
2213.115082
2214.228793
2215.333373
2216.428942
2217.515621
2218.593525
2219.662769
2220.723468
2221.775732
2222.81967
2223.855389
2224.882995
2225.902593
2226.914283
2227.918167
2228.914343
2229.902908
2230.883958
2231.857586
2232.823884
2233.782945
2234.734856
2235.679705
2236.617578
2237.548561
2238.472736
2239.390185
2240.300988
2241.205226
2242.102974
2242.99431
2243.879308
2244.758041
2245.630583
2246.497004
2247.357372
2248.211758
2249.060227
2249.902846
2250.739679
2251.570788
2252.396237
2253.216086
2254.030395
2254.839222
2255.642624
2256.440659
2257.23338
2258.020841
2258.803096
2259.580197
2260.352193
2261.119136
2261.881072
2262.638051
2263.390119
2264.137321
2264.879702
2265.617306
2266.350176
2267.078355
2267.801882
2268.5208
2269.235147
2269.944961
2270.650283
2271.351147
2272.047592
2272.739652
2273.427364
2274.110761
2274.789878
2275.464748
2276.135404
2276.801878
2277.464202
2278.122406
2278.776522
2279.42658
2280.07261
2280.71464
2281.352701
2281.986821
2282.617027
2283.243349
2283.865813
2284.484447
2285.099278
2285.710332
2286.317638
2286.921219
2287.521103
2288.117316
2288.709884
2289.298832
2289.884185
2290.465968
2291.044207
2291.618927
2292.190153
2292.757909
2293.32222
2293.88311
2294.440605
2294.994728
2295.545504
2296.092956
2296.637111
2297.17799
2297.715618
2298.25002
2298.781218
2299.309238
2299.834102
2300.355835
2300.87446
2301.390001
2301.902481
2302.411923
2302.918352
2303.42179
2303.92226
2304.419786
2304.91439
2305.406097
2305.894928
2306.380906
2306.864054
2307.344396
2307.821952
2308.296746
2308.768799
2309.238135
2309.704775
2310.16874
2310.630054
2311.088736
2311.54481
2311.998295
2312.449214
2312.897588
2313.343437
2313.786782
2314.227644
2314.666043
2315.102
2315.535534
2315.966666
2316.395415
2316.821801
2317.245843
2317.66756
2318.086972
2318.504097
2318.918954
2319.331561
2319.741936
2320.150098
2320.556064
2320.959851
2321.361478
2321.76096
2322.158316
2322.553562
2322.946714
2323.337788
2323.726801
2324.113767
2324.498704
2324.881625
2325.262547
2325.641483
2326.018448
2326.393457
2326.766524
2327.137662
2327.506885
2327.874205
2328.239637
2328.603193
2328.964885
2329.324726
2329.682727
2330.0389
2330.393256
2330.745808
2331.096565
2331.445538
2331.792738
2332.138174
2332.481857
2332.823796
2333.164
2333.502479
2333.839241
2334.174295
2334.50765
2334.839312
2335.169291
2335.497594
2335.824229
2336.149201
2336.472519
2336.79419
2337.114219
2337.432614
2337.74938
2338.064523
2338.37805
2338.689966
2339.000276
2339.308986
2339.616101
2339.921626
2340.225567
2340.527927
2340.828712
2341.127927
2341.425575
2341.721662
2342.016191
2342.309168
2342.600596
2342.890479
2343.178822
2343.465629
2343.750904
2344.034651
2344.316874
2344.597577
2344.876764
2345.154439
2345.430607
2345.705271
2345.978435
2346.250104
2346.520282
2346.788973
2347.056181
2347.321911
2347.586166
2347.848953
2348.110274
2348.370134
2348.628539
2348.885493
2349.141002
2349.39507
2349.647703
2349.898907
2350.14869
2350.397058
2350.644021
2350.889588
2351.133773
2351.376591
2351.618063
2351.858217
2352.097091
2352.334737
2352.571226
2352.806661
2353.041188
2353.275014
2353.508441
2353.741904
2353.976041
2354.211787
2354.450529
2354.69409
2354.901412
2355.102176
2355.302124
2355.510514
2355.729321
2355.947687
2356.165778
2356.384026
2356.603079
2356.823898
2357.047925
2357.277103
2357.471882
2357.660785
2357.848353
2358.04444
2358.25291
2358.463172
2358.676513
2358.89486
2359.079926
2359.259174
2359.440041
2359.633834
2359.836184
2360.04231
2360.254339
2360.434355
2360.61773
2360.793736
2360.969854
2361.139214
2361.314961
2361.48925
2361.670217
2361.85498
2362.042417
2362.233518
2362.430456
2362.597488
2362.76047
2362.92715
2363.113266
2363.274077
2363.43692
2363.594593
2363.752122
2363.907798
2364.065414
2364.228508
2364.398391
2364.570005
2364.745335
2364.892482
2365.040797
2365.190427
2365.343354
2365.503152
2365.66454
2365.827219
2365.992996
2366.164654
2366.310717
2366.456225
2366.600529
2366.74301
2366.881897
2367.022377
2367.157963
2367.292457
2367.434476
2367.577156
2367.725709
2367.878488
2368.036393
2368.168559
2368.296691
2368.423582
2368.556824
2368.702581
2368.852434
2368.976794
2369.101471
2369.228157
2369.357212
2369.491873
2369.628228
2369.767885
2369.913036
2370.034338
2370.152073
2370.268412
2370.391484
2370.52622
2370.665731
2370.781961
2370.894795
2371.007865
2371.129379
2371.26412
2371.376531
2371.491081
2371.60072
2371.708903
2371.816083
2371.928219
2372.053333
2372.159851
2372.265597
2372.374675
2372.478473
2372.583262
2372.682916
2372.789256
2372.893506
2372.992728
2373.094544
2373.192994
2373.292298
2373.386997
2373.48587
2373.578778
2373.676084
2373.767432
2373.862318
2373.95245
2374.045577
2374.13433
2374.225716
2374.313626
2374.403462
2374.490184
2374.577179
2374.661888
2374.748752
2374.834015
2374.917069
2375.003643
2375.081229
2375.165496
2375.242937
2375.322988
2375.398026
2375.47662
2375.547849
2375.622706
2375.694807
2375.772493
2375.852311
2375.932699
2376.013297
2376.093902
2376.174461
2376.254999
2376.335569
2376.416231
2376.497047
2376.578056
2376.659254
2376.740592
2376.821992
2376.903214
2376.983098
2377.057991
2377.129788
2377.200493
2377.272786
2377.350507
2377.41421
2377.479882
2377.54826
2377.609793
2377.676404
2377.737398
2377.809641
2377.870881
2377.943996
2378.016001
2378.087063
2378.157472
2378.227353
2378.296747
2378.365653
2378.434048
2378.501899
2378.569164
2378.635793
2378.701734
2378.766934
2378.831332
2378.89487
2378.957483
2379.019104
2379.079664
2379.139089
2379.197302
2379.25422
2379.309761
2379.363835
2379.416352
2379.467219
2379.516342
2379.563627
2379.608979
2379.652302
2379.693498
2379.732472
2379.769138
2379.803428
2379.836202
2379.861037
2379.880356
2379.900806
2379.918102
2379.931283
2379.940328
2379.945019
2379.945126
2379.940499
2379.930902
2379.917075
2379.900366
2379.877154
2379.84584
2379.80737
2379.761992
2379.709477
2379.649524
2379.581804
2379.505982
2379.421717
2379.328663
2379.226467
2379.114776
2378.993229
2378.861464
2378.719115
2378.565816
2378.401198
2378.224894
2378.036535
2377.835754
2377.622189
2377.395478
2377.155265
2376.9012
2376.632939
2376.350145
2376.052492
2375.739661
2375.411348
2375.067258
2374.707111
2374.330641
2373.937597
2373.527741
2373.100863
2372.656792
2372.195139
2371.714486
2371.218068
2370.758425
2370.362392
2369.871568
2369.321166
2368.754422
2368.171616
2367.572817
2366.95821
2366.328054
2365.682656
2365.022363
2364.347569
2363.658708
2362.95626
2362.240743
2361.512724
2360.772806
2360.021636
2359.259902
2358.488331
2357.707687
2356.918774
2356.122428
2355.319521
2354.510955
2353.697663
2352.880603
2352.060759
2351.239137
2350.416764
2349.594684
2348.773956
2347.955658
2347.140882
2346.33074
2345.526365
2344.728919
2343.939605
2343.159672
2342.390436
2341.633296
2340.889738
2340.161328
2339.449653
2338.756189
2338.082088
2337.427955
2336.793792
2336.179422
2335.585806
2335.017736
2334.48864
2334.029556
2333.70758
)
;

boundaryField
{
    base
    {
        type            empty;
    }
    outlet
    {
        type            zeroGradient;
    }
    inlet
    {
        type            fixedValue;
        value           uniform 300;
    }
}


// ************************************************************************* //
