/*--------------------------------*- C++ -*----------------------------------*\
| =========                 |                                                 |
| \\      /  F ield         | OpenFOAM: The Open Source CFD Toolbox           |
|  \\    /   O peration     | Version:  v1712                                 |
|   \\  /    A nd           | Web:      www.OpenFOAM.com                      |
|    \\/     M anipulation  |                                                 |
\*---------------------------------------------------------------------------*/
FoamFile
{
    version     2.0;
    format      ascii;
    class       volVectorField;
    location    "0.001";
    object      U;
}
// * * * * * * * * * * * * * * * * * * * * * * * * * * * * * * * * * * * * * //

dimensions      [0 1 -1 0 0 0 0];


internalField   nonuniform List<vector> 
1500
(
(2.290042116 0 0)
(2.290040038 0 0)
(2.290037799 0 0)
(2.290032861 0 0)
(2.290026141 0 0)
(2.290006097 0 0)
(2.289973491 0 0)
(2.289942204 0 0)
(2.289915279 0 0)
(2.289880573 0 0)
(2.289843347 0 0)
(2.289809157 0 0)
(2.2897717 0 0)
(2.289728878 0 0)
(2.289688272 0 0)
(2.289649769 0 0)
(2.289605653 0 0)
(2.289564068 0 0)
(2.289521979 0 0)
(2.289480091 0 0)
(2.289440799 0 0)
(2.289401438 0 0)
(2.289359043 0 0)
(2.289320552 0 0)
(2.289282691 0 0)
(2.289239277 0 0)
(2.289225148 0 0)
(2.289233378 0 0)
(2.289227907 0 0)
(2.289230938 0 0)
(2.289237312 0 0)
(2.289233613 0 0)
(2.289216593 0 0)
(2.289219424 0 0)
(2.28922179 0 0)
(2.289208573 0 0)
(2.289202773 0 0)
(2.289194114 0 0)
(2.28919881 0 0)
(2.289200081 0 0)
(2.289203304 0 0)
(2.289208013 0 0)
(2.289219264 0 0)
(2.289235841 0 0)
(2.289246639 0 0)
(2.289254965 0 0)
(2.289280242 0 0)
(2.289300905 0 0)
(2.289304683 0 0)
(2.289295895 0 0)
(2.289305581 0 0)
(2.289250833 0 0)
(2.289046268 0 0)
(2.288886539 0 0)
(2.288812535 0 0)
(2.288751921 0 0)
(2.288698956 0 0)
(2.288682805 0 0)
(2.288677683 0 0)
(2.288664946 0 0)
(2.28866786 0 0)
(2.288674525 0 0)
(2.288652503 0 0)
(2.288625897 0 0)
(2.288625943 0 0)
(2.288628538 0 0)
(2.288635203 0 0)
(2.288622333 0 0)
(2.28859243 0 0)
(2.288596742 0 0)
(2.288597633 0 0)
(2.288602183 0 0)
(2.288607928 0 0)
(2.288575562 0 0)
(2.288541489 0 0)
(2.288586238 0 0)
(2.288579214 0 0)
(2.288484401 0 0)
(2.288257938 0 0)
(2.288134059 0 0)
(2.288101999 0 0)
(2.288094147 0 0)
(2.288085645 0 0)
(2.288074825 0 0)
(2.28806434 0 0)
(2.288054217 0 0)
(2.288041667 0 0)
(2.288031403 0 0)
(2.288020905 0 0)
(2.288006438 0 0)
(2.28799261 0 0)
(2.287980694 0 0)
(2.287967867 0 0)
(2.287954245 0 0)
(2.287940371 0 0)
(2.287926503 0 0)
(2.287912638 0 0)
(2.287898992 0 0)
(2.287885045 0 0)
(2.287871084 0 0)
(2.287857526 0 0)
(2.287844046 0 0)
(2.287830592 0 0)
(2.287817462 0 0)
(2.287804536 0 0)
(2.287791811 0 0)
(2.287779319 0 0)
(2.287767045 0 0)
(2.287754986 0 0)
(2.28774309 0 0)
(2.287731362 0 0)
(2.287719796 0 0)
(2.287708299 0 0)
(2.287696895 0 0)
(2.287685573 0 0)
(2.287674314 0 0)
(2.287663095 0 0)
(2.287651872 0 0)
(2.287640695 0 0)
(2.287629555 0 0)
(2.287618428 0 0)
(2.28760733 0 0)
(2.28759625 0 0)
(2.287585187 0 0)
(2.287574118 0 0)
(2.287563045 0 0)
(2.287551994 0 0)
(2.287540942 0 0)
(2.287529934 0 0)
(2.287518934 0 0)
(2.287507927 0 0)
(2.287496966 0 0)
(2.28748603 0 0)
(2.287475124 0 0)
(2.287464265 0 0)
(2.28745345 0 0)
(2.287442673 0 0)
(2.287431976 0 0)
(2.287421365 0 0)
(2.287410796 0 0)
(2.287400316 0 0)
(2.287389942 0 0)
(2.287379652 0 0)
(2.287369456 0 0)
(2.287359357 0 0)
(2.287349351 0 0)
(2.287339438 0 0)
(2.287329616 0 0)
(2.287319873 0 0)
(2.287310222 0 0)
(2.287300637 0 0)
(2.287291112 0 0)
(2.287281636 0 0)
(2.287272203 0 0)
(2.287262813 0 0)
(2.287253442 0 0)
(2.287244091 0 0)
(2.28723475 0 0)
(2.287225417 0 0)
(2.287216084 0 0)
(2.287206754 0 0)
(2.287197427 0 0)
(2.287188097 0 0)
(2.28717877 0 0)
(2.28716945 0 0)
(2.287160139 0 0)
(2.287150841 0 0)
(2.287141563 0 0)
(2.287132311 0 0)
(2.28712309 0 0)
(2.287113905 0 0)
(2.287104762 0 0)
(2.287095667 0 0)
(2.287086623 0 0)
(2.287077636 0 0)
(2.287068709 0 0)
(2.287059846 0 0)
(2.287051051 0 0)
(2.287042323 0 0)
(2.287033664 0 0)
(2.28702508 0 0)
(2.287016571 0 0)
(2.287008133 0 0)
(2.286999764 0 0)
(2.286991463 0 0)
(2.286983223 0 0)
(2.286975045 0 0)
(2.286966921 0 0)
(2.286958834 0 0)
(2.286950783 0 0)
(2.28694276 0 0)
(2.286934753 0 0)
(2.286926754 0 0)
(2.286918751 0 0)
(2.286910742 0 0)
(2.286902717 0 0)
(2.286894673 0 0)
(2.286886608 0 0)
(2.286878519 0 0)
(2.286870411 0 0)
(2.286862279 0 0)
(2.286854125 0 0)
(2.286845961 0 0)
(2.286837795 0 0)
(2.286829614 0 0)
(2.286821432 0 0)
(2.286813269 0 0)
(2.28680511 0 0)
(2.286796964 0 0)
(2.286788823 0 0)
(2.286780707 0 0)
(2.286772604 0 0)
(2.2867645 0 0)
(2.286756431 0 0)
(2.286748381 0 0)
(2.286740338 0 0)
(2.286732313 0 0)
(2.286724309 0 0)
(2.286716345 0 0)
(2.286708401 0 0)
(2.286700476 0 0)
(2.286692593 0 0)
(2.286684738 0 0)
(2.286676917 0 0)
(2.286669121 0 0)
(2.286661338 0 0)
(2.286653579 0 0)
(2.286645842 0 0)
(2.286638108 0 0)
(2.286630392 0 0)
(2.286622701 0 0)
(2.286615018 0 0)
(2.286607349 0 0)
(2.286599702 0 0)
(2.286592055 0 0)
(2.286584424 0 0)
(2.286576613 0 0)
(2.286569904 0 0)
(2.286568099 0 0)
(2.286571142 0 0)
(2.286571087 0 0)
(2.286571168 0 0)
(2.286574574 0 0)
(2.286570683 0 0)
(2.286567945 0 0)
(2.286568194 0 0)
(2.286569106 0 0)
(2.28657395 0 0)
(2.28656583 0 0)
(2.286563435 0 0)
(2.286570503 0 0)
(2.286561122 0 0)
(2.286550998 0 0)
(2.286552526 0 0)
(2.286552046 0 0)
(2.286543608 0 0)
(2.286535761 0 0)
(2.286535952 0 0)
(2.286536666 0 0)
(2.286541118 0 0)
(2.286535271 0 0)
(2.286534261 0 0)
(2.286539551 0 0)
(2.286523138 0 0)
(2.286517983 0 0)
(2.286527707 0 0)
(2.286511554 0 0)
(2.286491031 0 0)
(2.286495415 0 0)
(2.286495457 0 0)
(2.286496173 0 0)
(2.286498122 0 0)
(2.286488652 0 0)
(2.286486622 0 0)
(2.286487629 0 0)
(2.28646423 0 0)
(2.286450523 0 0)
(2.286460832 0 0)
(2.286444602 0 0)
(2.286428151 0 0)
(2.286436753 0 0)
(2.286422594 0 0)
(2.286409234 0 0)
(2.286415919 0 0)
(2.286403231 0 0)
(2.286379947 0 0)
(2.286381716 0 0)
(2.286376765 0 0)
(2.286359869 0 0)
(2.286354939 0 0)
(2.286359297 0 0)
(2.286347917 0 0)
(2.28633898 0 0)
(2.286348424 0 0)
(2.286343129 0 0)
(2.286315922 0 0)
(2.286301966 0 0)
(2.286307117 0 0)
(2.286295334 0 0)
(2.286276338 0 0)
(2.286276392 0 0)
(2.286265824 0 0)
(2.286256823 0 0)
(2.286259229 0 0)
(2.286250363 0 0)
(2.286241742 0 0)
(2.286241548 0 0)
(2.286228028 0 0)
(2.286199627 0 0)
(2.286197246 0 0)
(2.286198113 0 0)
(2.286192987 0 0)
(2.28617891 0 0)
(2.286171821 0 0)
(2.286173021 0 0)
(2.286163622 0 0)
(2.286148719 0 0)
(2.286147137 0 0)
(2.286138455 0 0)
(2.286128034 0 0)
(2.286127279 0 0)
(2.286120164 0 0)
(2.28611081 0 0)
(2.286107964 0 0)
(2.28609701 0 0)
(2.286071676 0 0)
(2.286065768 0 0)
(2.286063697 0 0)
(2.286057525 0 0)
(2.286045546 0 0)
(2.286041817 0 0)
(2.286038789 0 0)
(2.28602912 0 0)
(2.286009689 0 0)
(2.28600454 0 0)
(2.28600186 0 0)
(2.285996151 0 0)
(2.285984124 0 0)
(2.285974999 0 0)
(2.285971901 0 0)
(2.285965162 0 0)
(2.285952565 0 0)
(2.28594801 0 0)
(2.285940058 0 0)
(2.285929001 0 0)
(2.285924557 0 0)
(2.285917278 0 0)
(2.285906576 0 0)
(2.285900747 0 0)
(2.285890851 0 0)
(2.285876781 0 0)
(2.285870876 0 0)
(2.285860469 0 0)
(2.285837152 0 0)
(2.285817711 0 0)
(2.285811334 0 0)
(2.285807987 0 0)
(2.285804034 0 0)
(2.285797375 0 0)
(2.285789505 0 0)
(2.285783747 0 0)
(2.285774573 0 0)
(2.285763019 0 0)
(2.285756397 0 0)
(2.28574652 0 0)
(2.285727447 0 0)
(2.285716701 0 0)
(2.285711871 0 0)
(2.285705114 0 0)
(2.285693024 0 0)
(2.285683813 0 0)
(2.285678457 0 0)
(2.285670466 0 0)
(2.285655501 0 0)
(2.285646608 0 0)
(2.285641721 0 0)
(2.285635012 0 0)
(2.285625982 0 0)
(2.285619212 0 0)
(2.285610765 0 0)
(2.285596362 0 0)
(2.285586364 0 0)
(2.285581058 0 0)
(2.285575668 0 0)
(2.28556801 0 0)
(2.285558977 0 0)
(2.285551148 0 0)
(2.285541962 0 0)
(2.285531932 0 0)
(2.285524432 0 0)
(2.285515915 0 0)
(2.28550363 0 0)
(2.285494044 0 0)
(2.285484033 0 0)
(2.285470409 0 0)
(2.28545957 0 0)
(2.285448259 0 0)
(2.285431414 0 0)
(2.285418269 0 0)
(2.285409314 0 0)
(2.285399193 0 0)
(2.285384744 0 0)
(2.285373397 0 0)
(2.285364981 0 0)
(2.285355584 0 0)
(2.285344329 0 0)
(2.285334476 0 0)
(2.285324329 0 0)
(2.285312521 0 0)
(2.285302273 0 0)
(2.285291483 0 0)
(2.285276916 0 0)
(2.285264894 0 0)
(2.285256687 0 0)
(2.285249249 0 0)
(2.285240528 0 0)
(2.285230069 0 0)
(2.285220149 0 0)
(2.285210133 0 0)
(2.285199304 0 0)
(2.285189768 0 0)
(2.285179887 0 0)
(2.285167397 0 0)
(2.285156275 0 0)
(2.285146117 0 0)
(2.285135145 0 0)
(2.285125849 0 0)
(2.285116425 0 0)
(2.285103548 0 0)
(2.285089377 0 0)
(2.285078583 0 0)
(2.285068736 0 0)
(2.285056137 0 0)
(2.285044475 0 0)
(2.28503548 0 0)
(2.285026327 0 0)
(2.28501457 0 0)
(2.285003618 0 0)
(2.284994776 0 0)
(2.284986101 0 0)
(2.284976895 0 0)
(2.284967961 0 0)
(2.284958232 0 0)
(2.284946288 0 0)
(2.284934765 0 0)
(2.284923331 0 0)
(2.284909411 0 0)
(2.284896353 0 0)
(2.284886272 0 0)
(2.284876886 0 0)
(2.284866703 0 0)
(2.28485707 0 0)
(2.284847447 0 0)
(2.284836881 0 0)
(2.284826749 0 0)
(2.28481664 0 0)
(2.284805173 0 0)
(2.284794037 0 0)
(2.284783617 0 0)
(2.284772914 0 0)
(2.284762883 0 0)
(2.284752706 0 0)
(2.284740104 0 0)
(2.284725357 0 0)
(2.284712314 0 0)
(2.284702365 0 0)
(2.284693861 0 0)
(2.284684855 0 0)
(2.284674133 0 0)
(2.284662988 0 0)
(2.284652752 0 0)
(2.284642381 0 0)
(2.284630328 0 0)
(2.284618364 0 0)
(2.284607911 0 0)
(2.284597919 0 0)
(2.284587362 0 0)
(2.284576812 0 0)
(2.284566086 0 0)
(2.284554417 0 0)
(2.284542734 0 0)
(2.284531418 0 0)
(2.284519832 0 0)
(2.284508443 0 0)
(2.284497309 0 0)
(2.284485671 0 0)
(2.284474054 0 0)
(2.284462728 0 0)
(2.284451024 0 0)
(2.284439823 0 0)
(2.284429876 0 0)
(2.284420188 0 0)
(2.284409438 0 0)
(2.284398645 0 0)
(2.284388955 0 0)
(2.284379701 0 0)
(2.284369905 0 0)
(2.284359936 0 0)
(2.284349959 0 0)
(2.284339483 0 0)
(2.28432885 0 0)
(2.284318165 0 0)
(2.284306822 0 0)
(2.284295504 0 0)
(2.284285066 0 0)
(2.284274932 0 0)
(2.284264198 0 0)
(2.284253174 0 0)
(2.284242096 0 0)
(2.284230637 0 0)
(2.284218989 0 0)
(2.284207133 0 0)
(2.284194567 0 0)
(2.284181926 0 0)
(2.284170071 0 0)
(2.284158512 0 0)
(2.284146313 0 0)
(2.284134081 0 0)
(2.28412266 0 0)
(2.284111598 0 0)
(2.284100031 0 0)
(2.284088303 0 0)
(2.284077161 0 0)
(2.284066394 0 0)
(2.284055332 0 0)
(2.284044151 0 0)
(2.284033252 0 0)
(2.284022607 0 0)
(2.284012253 0 0)
(2.284002173 0 0)
(2.283992172 0 0)
(2.283982303 0 0)
(2.283972502 0 0)
(2.28396245 0 0)
(2.283952428 0 0)
(2.283942946 0 0)
(2.283933752 0 0)
(2.283924223 0 0)
(2.283914411 0 0)
(2.28390462 0 0)
(2.283894893 0 0)
(2.283885166 0 0)
(2.283875146 0 0)
(2.283864437 0 0)
(2.283853263 0 0)
(2.283842169 0 0)
(2.283831048 0 0)
(2.283819368 0 0)
(2.28380712 0 0)
(2.283794588 0 0)
(2.28378186 0 0)
(2.283769114 0 0)
(2.283756547 0 0)
(2.283743951 0 0)
(2.283730938 0 0)
(2.283717569 0 0)
(2.283704135 0 0)
(2.283690761 0 0)
(2.283677485 0 0)
(2.28366425 0 0)
(2.283650945 0 0)
(2.283637779 0 0)
(2.283625093 0 0)
(2.28361284 0 0)
(2.283600723 0 0)
(2.283588743 0 0)
(2.283577061 0 0)
(2.283565725 0 0)
(2.283554874 0 0)
(2.283544697 0 0)
(2.283535078 0 0)
(2.283525692 0 0)
(2.283516509 0 0)
(2.283507781 0 0)
(2.28349969 0 0)
(2.283492144 0 0)
(2.283484823 0 0)
(2.28347742 0 0)
(2.283469956 0 0)
(2.28346266 0 0)
(2.28345549 0 0)
(2.283448131 0 0)
(2.283440421 0 0)
(2.283432442 0 0)
(2.283424276 0 0)
(2.283415941 0 0)
(2.283407355 0 0)
(2.283398282 0 0)
(2.283388423 0 0)
(2.283377726 0 0)
(2.283366447 0 0)
(2.283354801 0 0)
(2.283342755 0 0)
(2.283330102 0 0)
(2.283316636 0 0)
(2.283302401 0 0)
(2.283287624 0 0)
(2.283272382 0 0)
(2.283256587 0 0)
(2.283240233 0 0)
(2.283223549 0 0)
(2.283206815 0 0)
(2.283190216 0 0)
(2.283173876 0 0)
(2.283157901 0 0)
(2.283142392 0 0)
(2.283127434 0 0)
(2.283113113 0 0)
(2.283099507 0 0)
(2.28308665 0 0)
(2.283074546 0 0)
(2.283063266 0 0)
(2.283052951 0 0)
(2.283043668 0 0)
(2.283035376 0 0)
(2.283028024 0 0)
(2.283021649 0 0)
(2.2830163 0 0)
(2.283011868 0 0)
(2.283008219 0 0)
(2.283005366 0 0)
(2.283003104 0 0)
(2.283001206 0 0)
(2.282999679 0 0)
(2.282998271 0 0)
(2.282996656 0 0)
(2.282994653 0 0)
(2.28299207 0 0)
(2.282989002 0 0)
(2.282985312 0 0)
(2.282980423 0 0)
(2.282974083 0 0)
(2.282965526 0 0)
(2.282956271 0 0)
(2.282948386 0 0)
(2.282939126 0 0)
(2.282927081 0 0)
(2.282912856 0 0)
(2.282896589 0 0)
(2.282881793 0 0)
(2.282868047 0 0)
(2.28285153 0 0)
(2.282832325 0 0)
(2.282812106 0 0)
(2.2827914 0 0)
(2.28277055 0 0)
(2.282749289 0 0)
(2.282727464 0 0)
(2.28270545 0 0)
(2.282683968 0 0)
(2.282663527 0 0)
(2.282643868 0 0)
(2.282623886 0 0)
(2.282604447 0 0)
(2.282586447 0 0)
(2.282570394 0 0)
(2.282555113 0 0)
(2.282541106 0 0)
(2.282529445 0 0)
(2.282520303 0 0)
(2.282512951 0 0)
(2.282507577 0 0)
(2.282504566 0 0)
(2.282503149 0 0)
(2.282503849 0 0)
(2.282507283 0 0)
(2.282512629 0 0)
(2.282518875 0 0)
(2.282527571 0 0)
(2.282539153 0 0)
(2.282550446 0 0)
(2.282561376 0 0)
(2.282574537 0 0)
(2.282590104 0 0)
(2.282604159 0 0)
(2.282616268 0 0)
(2.282628021 0 0)
(2.282638787 0 0)
(2.282644795 0 0)
(2.282646759 0 0)
(2.28264716 0 0)
(2.282645088 0 0)
(2.282636288 0 0)
(2.282620811 0 0)
(2.282601445 0 0)
(2.282579487 0 0)
(2.28255183 0 0)
(2.282516785 0 0)
(2.282475223 0 0)
(2.282431133 0 0)
(2.28238676 0 0)
(2.282340981 0 0)
(2.282290867 0 0)
(2.282239609 0 0)
(2.282189837 0 0)
(2.282144242 0 0)
(2.282100593 0 0)
(2.282058926 0 0)
(2.282019249 0 0)
(2.281983859 0 0)
(2.281955032 0 0)
(2.281931847 0 0)
(2.281908885 0 0)
(2.281887888 0 0)
(2.281872082 0 0)
(2.281859882 0 0)
(2.281860388 0 0)
(2.281913172 0 0)
(2.282069758 0 0)
(2.282389191 0 0)
(2.282936673 0 0)
(2.28384176 0 0)
(2.285318121 0 0)
(2.287667013 0 0)
(2.291310086 0 0)
(2.296861645 0 0)
(2.304907616 0 0)
(2.316202226 0 0)
(2.332833368 0 0)
(2.358318077 0 0)
(2.396901291 0 0)
(2.455060712 0 0)
(2.538248794 0 0)
(2.672012647 0 0)
(2.824825864 0 0)
(2.995327262 0 0)
(3.230033357 0 0)
(3.502471555 0 0)
(3.799304544 0 0)
(4.111231852 0 0)
(4.428566775 0 0)
(4.751327496 0 0)
(5.078061996 0 0)
(5.399999705 0 0)
(5.713494988 0 0)
(6.017648995 0 0)
(6.312660271 0 0)
(6.599234384 0 0)
(6.878304632 0 0)
(7.150651802 0 0)
(7.415585789 0 0)
(7.669933006 0 0)
(7.911121181 0 0)
(8.156973047 0 0)
(8.394148824 0 0)
(8.607790866 0 0)
(8.820247955 0 0)
(9.02604358 0 0)
(9.223170488 0 0)
(9.41827001 0 0)
(9.60637366 0 0)
(9.786897495 0 0)
(9.959894143 0 0)
(10.1253801 0 0)
(10.28324366 0 0)
(10.43142186 0 0)
(10.56829577 0 0)
(10.6977419 0 0)
(10.82368679 0 0)
(10.94528679 0 0)
(11.05964694 0 0)
(11.16494939 0 0)
(11.26309239 0 0)
(11.35753979 0 0)
(11.44973217 0 0)
(11.53898295 0 0)
(11.62454384 0 0)
(11.70644381 0 0)
(11.78485747 0 0)
(11.85999654 0 0)
(11.93207113 0 0)
(12.00127981 0 0)
(12.06780732 0 0)
(12.13182484 0 0)
(12.19349073 0 0)
(12.25295185 0 0)
(12.3103446 0 0)
(12.36579603 0 0)
(12.41942488 0 0)
(12.47134207 0 0)
(12.52165086 0 0)
(12.57044483 0 0)
(12.61780262 0 0)
(12.66377101 0 0)
(12.70834527 0 0)
(12.75103351 0 0)
(12.7918967 0 0)
(12.83167584 0 0)
(12.87004977 0 0)
(12.90747992 0 0)
(12.94459736 0 0)
(12.98096636 0 0)
(13.01648499 0 0)
(13.05113568 0 0)
(13.08494336 0 0)
(13.11794463 0 0)
(13.15017665 0 0)
(13.18167442 0 0)
(13.21247094 0 0)
(13.24259733 0 0)
(13.27208152 0 0)
(13.30093754 0 0)
(13.32914343 0 0)
(13.35633074 0 0)
(13.38245827 0 0)
(13.4082488 0 0)
(13.43387967 0 0)
(13.45907505 0 0)
(13.4837933 0 0)
(13.5080308 0 0)
(13.5317975 0 0)
(13.55510672 0 0)
(13.57797229 0 0)
(13.60040779 0 0)
(13.62242629 0 0)
(13.64404033 0 0)
(13.66526195 0 0)
(13.68610269 0 0)
(13.70657362 0 0)
(13.72668537 0 0)
(13.74644813 0 0)
(13.76587173 0 0)
(13.78496558 0 0)
(13.80373876 0 0)
(13.82219999 0 0)
(13.84035769 0 0)
(13.85821992 0 0)
(13.87579448 0 0)
(13.89308889 0 0)
(13.9101104 0 0)
(13.92686598 0 0)
(13.94336237 0 0)
(13.95960607 0 0)
(13.97560337 0 0)
(13.99136032 0 0)
(14.00688276 0 0)
(14.02217636 0 0)
(14.03724658 0 0)
(14.05209869 0 0)
(14.06673783 0 0)
(14.08116891 0 0)
(14.09539672 0 0)
(14.10942588 0 0)
(14.12326088 0 0)
(14.13690605 0 0)
(14.15036559 0 0)
(14.16364357 0 0)
(14.17674394 0 0)
(14.18967052 0 0)
(14.20242703 0 0)
(14.21501705 0 0)
(14.2274441 0 0)
(14.23971154 0 0)
(14.25182268 0 0)
(14.26378073 0 0)
(14.27558878 0 0)
(14.28724986 0 0)
(14.29876691 0 0)
(14.31014277 0 0)
(14.32138023 0 0)
(14.332482 0 0)
(14.34345071 0 0)
(14.35428892 0 0)
(14.36499912 0 0)
(14.37558376 0 0)
(14.38604518 0 0)
(14.39638571 0 0)
(14.4066076 0 0)
(14.41671303 0 0)
(14.42670415 0 0)
(14.43658304 0 0)
(14.44635174 0 0)
(14.45601223 0 0)
(14.46556645 0 0)
(14.47501629 0 0)
(14.48436359 0 0)
(14.49361016 0 0)
(14.50275775 0 0)
(14.51180808 0 0)
(14.52076282 0 0)
(14.52962362 0 0)
(14.53839206 0 0)
(14.54706971 0 0)
(14.55565809 0 0)
(14.5641587 0 0)
(14.57257298 0 0)
(14.58090235 0 0)
(14.58914821 0 0)
(14.59731191 0 0)
(14.60539478 0 0)
(14.6133981 0 0)
(14.62132315 0 0)
(14.62917117 0 0)
(14.63694335 0 0)
(14.64464088 0 0)
(14.65226493 0 0)
(14.6598166 0 0)
(14.66729702 0 0)
(14.67470726 0 0)
(14.68204836 0 0)
(14.68932138 0 0)
(14.6965273 0 0)
(14.70366712 0 0)
(14.71074181 0 0)
(14.71775231 0 0)
(14.72469954 0 0)
(14.73158441 0 0)
(14.73840781 0 0)
(14.74517059 0 0)
(14.7518736 0 0)
(14.75851769 0 0)
(14.76510365 0 0)
(14.77163229 0 0)
(14.77810438 0 0)
(14.78452069 0 0)
(14.79088196 0 0)
(14.79718894 0 0)
(14.80344233 0 0)
(14.80964284 0 0)
(14.81579116 0 0)
(14.82188798 0 0)
(14.82793394 0 0)
(14.8339297 0 0)
(14.83987591 0 0)
(14.84577319 0 0)
(14.85162216 0 0)
(14.85742341 0 0)
(14.86317754 0 0)
(14.86888513 0 0)
(14.87454676 0 0)
(14.88016298 0 0)
(14.88573435 0 0)
(14.89126141 0 0)
(14.89674468 0 0)
(14.9021847 0 0)
(14.90758198 0 0)
(14.91293702 0 0)
(14.91825031 0 0)
(14.92352236 0 0)
(14.92875363 0 0)
(14.9339446 0 0)
(14.93909573 0 0)
(14.94420749 0 0)
(14.94928032 0 0)
(14.95431466 0 0)
(14.95931095 0 0)
(14.96426962 0 0)
(14.96919109 0 0)
(14.97407577 0 0)
(14.97892408 0 0)
(14.98373641 0 0)
(14.98851316 0 0)
(14.99325472 0 0)
(14.99796148 0 0)
(15.00263381 0 0)
(15.00727208 0 0)
(15.01187667 0 0)
(15.01644793 0 0)
(15.02098621 0 0)
(15.02549187 0 0)
(15.02996526 0 0)
(15.0344067 0 0)
(15.03881654 0 0)
(15.04319511 0 0)
(15.04754273 0 0)
(15.05185972 0 0)
(15.0561464 0 0)
(15.06040307 0 0)
(15.06463004 0 0)
(15.06882762 0 0)
(15.0729961 0 0)
(15.07713577 0 0)
(15.08124692 0 0)
(15.08532984 0 0)
(15.08938481 0 0)
(15.0934121 0 0)
(15.09741198 0 0)
(15.10138473 0 0)
(15.10533061 0 0)
(15.10924987 0 0)
(15.11314279 0 0)
(15.11700961 0 0)
(15.12085058 0 0)
(15.12466594 0 0)
(15.12845595 0 0)
(15.13222084 0 0)
(15.13596085 0 0)
(15.13967622 0 0)
(15.14336717 0 0)
(15.14703394 0 0)
(15.15067674 0 0)
(15.1542958 0 0)
(15.15789134 0 0)
(15.16146357 0 0)
(15.16501271 0 0)
(15.16853897 0 0)
(15.17204256 0 0)
(15.17552368 0 0)
(15.17898254 0 0)
(15.18241933 0 0)
(15.18583426 0 0)
(15.18922751 0 0)
(15.19259929 0 0)
(15.19594978 0 0)
(15.19927917 0 0)
(15.20258765 0 0)
(15.2058754 0 0)
(15.20914261 0 0)
(15.21238944 0 0)
(15.21561609 0 0)
(15.21882272 0 0)
(15.2220095 0 0)
(15.22517662 0 0)
(15.22832423 0 0)
(15.23145251 0 0)
(15.23456161 0 0)
(15.23765171 0 0)
(15.24072296 0 0)
(15.24377552 0 0)
(15.24680955 0 0)
(15.24982521 0 0)
(15.25282264 0 0)
(15.255802 0 0)
(15.25876343 0 0)
(15.2617071 0 0)
(15.26463314 0 0)
(15.26754169 0 0)
(15.2704329 0 0)
(15.27330691 0 0)
(15.27616385 0 0)
(15.27900387 0 0)
(15.28182711 0 0)
(15.28463368 0 0)
(15.28742374 0 0)
(15.2901974 0 0)
(15.29295479 0 0)
(15.29569605 0 0)
(15.29842129 0 0)
(15.30113065 0 0)
(15.30382424 0 0)
(15.30650219 0 0)
(15.30916461 0 0)
(15.31181162 0 0)
(15.31444335 0 0)
(15.31705989 0 0)
(15.31966137 0 0)
(15.3222479 0 0)
(15.32481958 0 0)
(15.32737653 0 0)
(15.32991886 0 0)
(15.33244666 0 0)
(15.33496005 0 0)
(15.33745913 0 0)
(15.339944 0 0)
(15.34241475 0 0)
(15.3448715 0 0)
(15.34731433 0 0)
(15.34974335 0 0)
(15.35215864 0 0)
(15.35456031 0 0)
(15.35694844 0 0)
(15.35932313 0 0)
(15.36168447 0 0)
(15.36403255 0 0)
(15.36636745 0 0)
(15.36868926 0 0)
(15.37099807 0 0)
(15.37329397 0 0)
(15.37557703 0 0)
(15.37784734 0 0)
(15.38010499 0 0)
(15.38235004 0 0)
(15.38458259 0 0)
(15.38680271 0 0)
(15.38901048 0 0)
(15.39120597 0 0)
(15.39338926 0 0)
(15.39556044 0 0)
(15.39771956 0 0)
(15.39986671 0 0)
(15.40200195 0 0)
(15.40412537 0 0)
(15.40623702 0 0)
(15.40833698 0 0)
(15.41042532 0 0)
(15.41250211 0 0)
(15.41456742 0 0)
(15.41662131 0 0)
(15.41866385 0 0)
(15.42069511 0 0)
(15.42271514 0 0)
(15.42472403 0 0)
(15.42672182 0 0)
(15.42870858 0 0)
(15.43068438 0 0)
(15.43264928 0 0)
(15.43460334 0 0)
(15.43654662 0 0)
(15.43847918 0 0)
(15.44040109 0 0)
(15.44231239 0 0)
(15.44421315 0 0)
(15.44610344 0 0)
(15.44798329 0 0)
(15.44985279 0 0)
(15.45171197 0 0)
(15.45356091 0 0)
(15.45539964 0 0)
(15.45722824 0 0)
(15.45904676 0 0)
(15.46085525 0 0)
(15.46265376 0 0)
(15.46444235 0 0)
(15.46622108 0 0)
(15.46799 0 0)
(15.46974916 0 0)
(15.47149861 0 0)
(15.47323842 0 0)
(15.47496862 0 0)
(15.47668927 0 0)
(15.47840043 0 0)
(15.48010215 0 0)
(15.48179447 0 0)
(15.48347745 0 0)
(15.48515114 0 0)
(15.48681559 0 0)
(15.48847084 0 0)
(15.49011695 0 0)
(15.49175397 0 0)
(15.49338195 0 0)
(15.49500093 0 0)
(15.49661096 0 0)
(15.49821209 0 0)
(15.49980437 0 0)
(15.50138785 0 0)
(15.50296257 0 0)
(15.50452858 0 0)
(15.50608592 0 0)
(15.50763464 0 0)
(15.50917479 0 0)
(15.51070641 0 0)
(15.51222954 0 0)
(15.51374423 0 0)
(15.51525053 0 0)
(15.51674847 0 0)
(15.5182381 0 0)
(15.51971946 0 0)
(15.5211926 0 0)
(15.52265755 0 0)
(15.52411436 0 0)
(15.52556307 0 0)
(15.52700371 0 0)
(15.52843634 0 0)
(15.52986098 0 0)
(15.53127769 0 0)
(15.53268649 0 0)
(15.53408743 0 0)
(15.53548054 0 0)
(15.53686587 0 0)
(15.53824345 0 0)
(15.53961333 0 0)
(15.54097553 0 0)
(15.54233011 0 0)
(15.54367709 0 0)
(15.54501653 0 0)
(15.54634847 0 0)
(15.54767295 0 0)
(15.54899004 0 0)
(15.5502998 0 0)
(15.5516023 0 0)
(15.55289767 0 0)
(15.55418601 0 0)
(15.55546752 0 0)
(15.55674245 0 0)
(15.55801114 0 0)
(15.55927409 0 0)
(15.560532 0 0)
(15.56178588 0 0)
(15.56303721 0 0)
(15.56428811 0 0)
(15.56554162 0 0)
(15.56680196 0 0)
(15.56807376 0 0)
(15.56935982 0 0)
(15.57061927 0 0)
(15.57179073 0 0)
(15.57288691 0 0)
(15.57396497 0 0)
(15.57506814 0 0)
(15.57620942 0 0)
(15.57737118 0 0)
(15.57853926 0 0)
(15.57971219 0 0)
(15.58089285 0 0)
(15.58208575 0 0)
(15.58329421 0 0)
(15.58447961 0 0)
(15.58558289 0 0)
(15.58661495 0 0)
(15.58763035 0 0)
(15.58867516 0 0)
(15.58976843 0 0)
(15.59089679 0 0)
(15.5920474 0 0)
(15.59317854 0 0)
(15.59423165 0 0)
(15.59521978 0 0)
(15.59620346 0 0)
(15.59722644 0 0)
(15.59829684 0 0)
(15.59940632 0 0)
(15.60050233 0 0)
(15.60157695 0 0)
(15.6025943 0 0)
(15.60344824 0 0)
(15.60442864 0 0)
(15.60542078 0 0)
(15.60625614 0 0)
(15.60722211 0 0)
(15.60824915 0 0)
(15.60926299 0 0)
(15.61028449 0 0)
(15.61132402 0 0)
(15.61235231 0 0)
(15.61331556 0 0)
(15.61422719 0 0)
(15.61514945 0 0)
(15.61609282 0 0)
(15.61705619 0 0)
(15.61796873 0 0)
(15.618839 0 0)
(15.61969502 0 0)
(15.62053708 0 0)
(15.62136644 0 0)
(15.62225281 0 0)
(15.62320305 0 0)
(15.62413699 0 0)
(15.6250641 0 0)
(15.62597168 0 0)
(15.62681993 0 0)
(15.62755519 0 0)
(15.62837494 0 0)
(15.62926897 0 0)
(15.6301255 0 0)
(15.63100979 0 0)
(15.63191538 0 0)
(15.63282318 0 0)
(15.63369318 0 0)
(15.63452329 0 0)
(15.635335 0 0)
(15.63611906 0 0)
(15.63691932 0 0)
(15.63769271 0 0)
(15.63845287 0 0)
(15.63915171 0 0)
(15.63984812 0 0)
(15.64068368 0 0)
(15.64153455 0 0)
(15.64237867 0 0)
(15.64320881 0 0)
(15.64398501 0 0)
(15.64470972 0 0)
(15.6454219 0 0)
(15.64615834 0 0)
(15.64693572 0 0)
(15.64771369 0 0)
(15.6484772 0 0)
(15.64916913 0 0)
(15.64979611 0 0)
(15.65049564 0 0)
(15.65124612 0 0)
(15.65200111 0 0)
(15.65277909 0 0)
(15.65354624 0 0)
(15.6542584 0 0)
(15.65492191 0 0)
(15.65557304 0 0)
(15.65624244 0 0)
(15.65695403 0 0)
(15.65767928 0 0)
(15.6583629 0 0)
(15.65900418 0 0)
(15.65963979 0 0)
(15.66030952 0 0)
(15.66099777 0 0)
(15.66167884 0 0)
(15.66232161 0 0)
(15.66294353 0 0)
(15.66357503 0 0)
(15.66419102 0 0)
(15.66482006 0 0)
(15.66546266 0 0)
(15.6661004 0 0)
(15.66673141 0 0)
(15.66734757 0 0)
(15.66796163 0 0)
(15.66855693 0 0)
(15.66907232 0 0)
(15.66970853 0 0)
(15.67036868 0 0)
(15.67094158 0 0)
(15.67153828 0 0)
(15.67212053 0 0)
(15.67270561 0 0)
(15.67320549 0 0)
(15.67375347 0 0)
(15.67432148 0 0)
(15.67488254 0 0)
(15.67550452 0 0)
(15.67605372 0 0)
(15.67660869 0 0)
(15.6771566 0 0)
(15.67770098 0 0)
(15.67824883 0 0)
(15.67878492 0 0)
(15.67931657 0 0)
(15.67983228 0 0)
(15.68035413 0 0)
(15.68087802 0 0)
(15.68141462 0 0)
(15.68186171 0 0)
(15.68232671 0 0)
(15.68290264 0 0)
(15.68341581 0 0)
(15.68392481 0 0)
(15.68449893 0 0)
(15.6850039 0 0)
(15.68541933 0 0)
(15.68589453 0 0)
(15.68636539 0 0)
(15.68685665 0 0)
(15.6873438 0 0)
(15.68777758 0 0)
(15.68827101 0 0)
(15.68875567 0 0)
(15.68923955 0 0)
(15.68971924 0 0)
(15.69019582 0 0)
(15.69066974 0 0)
(15.69114119 0 0)
(15.69161028 0 0)
(15.69207694 0 0)
(15.6925408 0 0)
(15.69300127 0 0)
(15.69345811 0 0)
(15.69391082 0 0)
(15.69435353 0 0)
(15.69477374 0 0)
(15.69517943 0 0)
(15.69559177 0 0)
(15.69602128 0 0)
(15.69647631 0 0)
(15.69693004 0 0)
(15.69736855 0 0)
(15.69774643 0 0)
(15.69814409 0 0)
(15.69860934 0 0)
(15.69901284 0 0)
(15.69938641 0 0)
(15.69979302 0 0)
(15.70019974 0 0)
(15.7005887 0 0)
(15.70097748 0 0)
(15.70136929 0 0)
(15.70176074 0 0)
(15.70214996 0 0)
(15.70253626 0 0)
(15.70291938 0 0)
(15.70329925 0 0)
(15.70367587 0 0)
(15.70404926 0 0)
(15.7044194 0 0)
(15.70478628 0 0)
(15.70514987 0 0)
(15.70551015 0 0)
(15.70586709 0 0)
(15.70622065 0 0)
(15.70657082 0 0)
(15.70691756 0 0)
(15.70726084 0 0)
(15.70760063 0 0)
(15.70793689 0 0)
(15.70826961 0 0)
(15.70859876 0 0)
(15.70892432 0 0)
(15.70924628 0 0)
(15.70956463 0 0)
(15.70987933 0 0)
(15.71019034 0 0)
(15.71049755 0 0)
(15.71080083 0 0)
(15.71110024 0 0)
(15.71139584 0 0)
(15.71169234 0 0)
(15.71196217 0 0)
(15.71224095 0 0)
(15.71253513 0 0)
(15.71280339 0 0)
(15.71306956 0 0)
(15.71333424 0 0)
(15.71359439 0 0)
(15.71384959 0 0)
(15.71410018 0 0)
(15.71434585 0 0)
(15.71458631 0 0)
(15.71482302 0 0)
(15.71505514 0 0)
(15.71528097 0 0)
(15.7155013 0 0)
(15.71571609 0 0)
(15.71592499 0 0)
(15.71612824 0 0)
(15.71632569 0 0)
(15.71651727 0 0)
(15.71670292 0 0)
(15.71688257 0 0)
(15.71705614 0 0)
(15.71722356 0 0)
(15.71738478 0 0)
(15.71753972 0 0)
(15.71768833 0 0)
(15.71783059 0 0)
(15.71796644 0 0)
(15.71809587 0 0)
(15.71821888 0 0)
(15.71833549 0 0)
(15.71844572 0 0)
(15.71854965 0 0)
(15.71864737 0 0)
(15.71873903 0 0)
(15.7188248 0 0)
(15.71890493 0 0)
(15.7189797 0 0)
(15.71904946 0 0)
(15.71911456 0 0)
(15.71917534 0 0)
(15.71923202 0 0)
(15.7192846 0 0)
(15.71933278 0 0)
(15.71937597 0 0)
(15.71941345 0 0)
(15.71944497 0 0)
(15.71946908 0 0)
(15.71947515 0 0)
(15.71948506 0 0)
(15.71966394 0 0)
(15.71974235 0 0)
(15.71961181 0 0)
(15.71963937 0 0)
(15.7197307 0 0)
(15.71975967 0 0)
(15.71977655 0 0)
(15.71978838 0 0)
(15.71979861 0 0)
(15.71980902 0 0)
(15.71982081 0 0)
(15.71983476 0 0)
(15.71985132 0 0)
(15.71987071 0 0)
(15.71989304 0 0)
(15.71991842 0 0)
(15.71994694 0 0)
(15.71997874 0 0)
(15.72001401 0 0)
(15.72005293 0 0)
(15.72009573 0 0)
(15.72014263 0 0)
(15.72019388 0 0)
(15.72024973 0 0)
(15.72031041 0 0)
(15.72037617 0 0)
(15.72044722 0 0)
(15.72052378 0 0)
(15.72060605 0 0)
(15.72069424 0 0)
(15.72078853 0 0)
(15.72088912 0 0)
(15.72099622 0 0)
(15.72111009 0 0)
(15.72123102 0 0)
(15.72135939 0 0)
(15.7214957 0 0)
(15.72164059 0 0)
(15.72179491 0 0)
(15.72195976 0 0)
(15.72213652 0 0)
(15.72232684 0 0)
(15.72253248 0 0)
(15.72275501 0 0)
(15.72299509 0 0)
(15.72325164 0 0)
(15.72352143 0 0)
(15.72379978 0 0)
(15.72408422 0 0)
(15.72438196 0 0)
(15.72472269 0 0)
(15.72517607 0 0)
(15.72592644 0 0)
(15.72730395 0 0)
(15.73162743 0 0)
)
;

boundaryField
{
    base
    {
        type            empty;
    }
    outlet
    {
        type            inletOutlet;
        inletValue      uniform (0 0 0);
        value           uniform (15.73162743 0 0);
    }
    inlet
    {
        type            fixedValue;
        value           uniform (2.290042724 0 0);
    }
}


// ************************************************************************* //
